# vtk DataFile Version 3.0
Zombie Bunny baseline structured grid
ASCII
DATASET STRUCTURED_POINTS
DIMENSIONS 16 16 16
ORIGIN -0.22 -0.22 -0.22
SPACING 0.029333333333333333 0.029333333333333333 0.029333333333333333
POINT_DATA 4096
SCALARS solution float 1
LOOKUP_TABLE default
-0.6599999666213989
-0.6306666731834412
-0.6013333201408386
-0.5720000267028809
-0.5426666736602783
-0.5133333206176758
-0.48399999737739563
-0.4546666741371155
-0.4253333508968353
-0.3960000276565552
-0.36666667461395264
-0.3373333215713501
-0.30799999833106995
-0.2786666750907898
-0.24933332204818726
-0.2199999988079071
-0.6306666135787964
-0.6013333201408386
-0.5720000267028809
-0.5426666736602783
-0.5133333802223206
-0.48399996757507324
-0.4546666145324707
-0.42533332109451294
-0.3959999680519104
-0.366666704416275
-0.3373333215713501
-0.30799996852874756
-0.2786666750907898
-0.24933330714702606
-0.2199999839067459
-0.19066664576530457
-0.6013333797454834
-0.5720000267028809
-0.5426666736602783
-0.5133333206176758
-0.484000027179718
-0.4546666741371155
-0.42533332109451294
-0.3960000276565552
-0.36666667461395264
-0.3373333811759949
-0.30800002813339233
-0.2786666750907898
-0.24933333694934845
-0.2200000137090683
-0.19066669046878815
-0.1613333523273468
-0.5720000267028809
-0.5426666736602783
-0.5133333206176758
-0.48399999737739563
-0.4546666741371155
-0.42533332109451294
-0.3959999978542328
-0.36666667461395264
-0.3373333513736725
-0.30799999833106995
-0.2786666750907898
-0.24933332204818726
-0.2199999988079071
-0.19066664576530457
-0.1613333523273468
-0.13199999928474426
-0.5426666736602783
-0.5133333206176758
-0.48399996757507324
-0.4546666741371155
-0.4253333508968353
-0.3959999680519104
-0.36666667461395264
-0.3373333513736725
-0.30800002813339233
-0.2786666750907898
-0.24933336675167084
-0.2199999988079071
-0.19066670536994934
-0.1613333523273468
-0.13199999928474426
-0.10266667604446411
-0.5133333206176758
-0.48399996757507324
-0.4546666145324707
-0.42533332109451294
-0.3959999680519104
-0.36666661500930786
-0.3373332917690277
-0.30799993872642517
-0.2786666750907898
-0.24933335185050964
-0.21999996900558472
-0.19066664576530457
-0.16133329272270203
-0.13199995458126068
-0.10266664624214172
-0.07333332300186157
-0.48399999737739563
-0.4546666741371155
-0.42533332109451294
-0.3959999978542328
-0.36666667461395264
-0.3373333215713501
-0.30799999833106995
-0.2786666750907898
-0.24933333694934845
-0.2199999988079071
-0.19066667556762695
-0.1613333374261856
-0.13199999928474426
-0.10266664624214172
-0.07333335280418396
-0.04399999976158142
-0.4546666741371155
-0.42533332109451294
-0.3959999978542328
-0.36666667461395264
-0.3373333513736725
-0.30799996852874756
-0.2786666750907898
-0.24933332204818726
-0.2200000137090683
-0.19066669046878815
-0.1613333821296692
-0.13199995458126068
-0.10266667604446411
-0.07333329319953918
-0.04400002956390381
-0.014666661620140076
-0.4253333508968353
-0.3959999978542328
-0.36666667461395264
-0.3373333513736725
-0.30800002813339233
-0.2786666750907898
-0.24933333694934845
-0.2200000137090683
-0.19066670536994934
-0.161333367228508
-0.13200004398822784
-0.1026667058467865
-0.07333338260650635
-0.04400002956390381
-0.014666706323623657
0.014666661620140076
-0.3960000276565552
-0.366666704416275
-0.3373333811759949
-0.30800002813339233
-0.2786666750907898
-0.24933330714702606
-0.2199999988079071
-0.19066669046878815
-0.161333367228508
-0.13200005888938904
-0.10266672074794769
-0.07333333790302277
-0.044000059366226196
-0.014666646718978882
0.014666616916656494
0.04399999976158142
-0.36666667461395264
-0.3373333215713501
-0.3080000579357147
-0.2786667048931122
-0.24933336675167084
-0.2199999839067459
-0.19066667556762695
-0.1613333821296692
-0.13200004398822784
-0.10266672074794769
-0.07333335280418396
-0.043999992311000824
-0.014666691422462463
0.014666721224784851
0.04399998486042023
0.07333332300186157
-0.3373333215713501
-0.30799996852874756
-0.2786666750907898
-0.24933332204818726
-0.2199999988079071
-0.19066664576530457
-0.1613333374261856
-0.13200002908706665
-0.1026667058467865
-0.07333333790302277
-0.04399999976158142
-0.014666646718978882
0.014666616916656494
0.04399996995925903
0.07333335280418396
0.10266667604446411
-0.30799999833106995
-0.2786666750907898
-0.24933335185050964
-0.2200000286102295
-0.19066670536994934
-0.16133330762386322
-0.13199999928474426
-0.10266667604446411
-0.07333338260650635
-0.04399999976158142
-0.014666631817817688
0.01466667652130127
0.04399999976158142
0.07333329319953918
0.10266660153865814
0.13199999928474426
-0.2786666750907898
-0.24933332204818726
-0.2199999988079071
-0.19066664576530457
-0.1613333523273468
-0.13199996948242188
-0.10266664624214172
-0.07333329319953918
-0.04400002956390381
-0.014666646718978882
0.014666721224784851
0.04400002956390381
0.07333329319953918
0.10266664624214172
0.13200002908706665
0.1613333374261856
-0.24933332204818726
-0.2199999988079071
-0.19066673517227173
-0.1613333523273468
-0.13199999928474426
-0.10266664624214172
-0.07333335280418396
-0.04400002956390381
-0.014666706323623657
0.014666616916656494
0.04399998486042023
0.07333335280418396
0.10266660153865814
0.13200002908706665
0.1613333523273468
0.19066666066646576
-0.2199999988079071
-0.19066666066646576
-0.1613333374261856
-0.13199999928474426
-0.10266667604446411
-0.07333332300186157
-0.04399999976158142
-0.014666661620140076
0.014666661620140076
0.04399999976158142
0.07333332300186157
0.10266667604446411
0.13199999928474426
0.1613333374261856
0.19066666066646576
0.2199999988079071
-0.6306666135787964
-0.6013333201408386
-0.5719999670982361
-0.5426666736602783
-0.5133333802223206
-0.48399996757507324
-0.4546666443347931
-0.42533332109451294
-0.3959999680519104
-0.366666704416275
-0.3373333215713501
-0.30799996852874756
-0.2786666750907898
-0.24933330714702606
-0.2199999839067459
-0.19066664576530457
-0.6013333201408386
-0.5750079154968262
-0.5465605854988098
-0.5243920683860779
-0.4803314507007599
-0.45083191990852356
-0.42352792620658875
-0.40228477120399475
-0.3680537939071655
-0.3412856161594391
-0.3030315637588501
-0.28133803606033325
-0.25548312067985535
-0.21741783618927002
-0.1959669291973114
-0.1613333523273468
-0.5720000267028809
-0.5401954650878906
-0.5124282240867615
-0.491318941116333
-0.4606921374797821
-0.41719385981559753
-0.39649254083633423
-0.37139177322387695
-0.3412898778915405
-0.3126579225063324
-0.27629077434539795
-0.2517305016517639
-0.2247457355260849
-0.1899709403514862
-0.1670626699924469
-0.13200002908706665
-0.5426666736602783
-0.5151256918907166
-0.48323625326156616
-0.45233872532844543
-0.4312620759010315
-0.40177714824676514
-0.3595302402973175
-0.3385706841945648
-0.3049456775188446
-0.27333948016166687
-0.2523704767227173
-0.21649454534053802
-0.18407191336154938
-0.15961666405200958
-0.13554151356220245
-0.10266658663749695
-0.5133333206176758
-0.48456525802612305
-0.4602177143096924
-0.43109792470932007
-0.3927977979183197
-0.3563689589500427
-0.33816346526145935
-0.2965500056743622
-0.2834649384021759
-0.2439606785774231
-0.21949397027492523
-0.17946620285511017
-0.1667032241821289
-0.12591858208179474
-0.09367403388023376
-0.07333335280418396
-0.48399999737739563
-0.45545315742492676
-0.4407571852207184
-0.3972456753253937
-0.3665464222431183
-0.3449876010417938
-0.3184705674648285
-0.2853770852088928
-0.24197638034820557
-0.2218865603208542
-0.1899154633283615
-0.1660778969526291
-0.1340712308883667
-0.11042744666337967
-0.07211962342262268
-0.04399999976158142
-0.4546666443347931
-0.4156631827354431
-0.39553216099739075
-0.376792848110199
-0.3467226028442383
-0.30947238206863403
-0.27246755361557007
-0.255967915058136
-0.21897456049919128
-0.19181476533412933
-0.14829447865486145
-0.12727001309394836
-0.09637711942195892
-0.0705699548125267
-0.041955024003982544
-0.014666616916656494
-0.42533332109451294
-0.40084388852119446
-0.36600568890571594
-0.3503499925136566
-0.31414854526519775
-0.27767378091812134
-0.23083403706550598
-0.22415611147880554
-0.176787868142128
-0.17538490891456604
-0.13025403022766113
-0.10379097610712051
-0.08550247550010681
-0.03972439840435982
-0.013006504625082016
0.014666706323623657
-0.3959999978542328
-0.3723007142543793
-0.34040531516075134
-0.31446799635887146
-0.2840344309806824
-0.24431641399860382
-0.2243676334619522
-0.18684713542461395
-0.15424761176109314
-0.126394584774971
-0.10373735427856445
-0.055831801146268845
-0.039442840963602066
-0.017196262255311012
0.02024044096469879
0.04400002956390381
-0.366666704416275
-0.3416610360145569
-0.30470147728919983
-0.27728405594825745
-0.25535550713539124
-0.224734827876091
-0.1854107528924942
-0.1577005535364151
-0.1362883597612381
-0.09525326639413834
-0.0741853192448616
-0.04037484899163246
-0.006695542950183153
0.019350582733750343
0.04071743041276932
0.07333335280418396
-0.3373333215713501
-0.30295899510383606
-0.27102741599082947
-0.25125885009765625
-0.22827230393886566
-0.19459936022758484
-0.1665666252374649
-0.13797485828399658
-0.11157406866550446
-0.07258749008178711
-0.03253316134214401
-0.015530817210674286
0.005520237609744072
0.05405362322926521
0.07425552606582642
0.10266664624214172
-0.30799996852874756
-0.2813207805156708
-0.2531343102455139
-0.20996247231960297
-0.17266137897968292
-0.16870149970054626
-0.13472537696361542
-0.1069088727235794
-0.07587923854589462
-0.04556351900100708
-0.014233481138944626
0.022200938314199448
0.05216289684176445
0.08118455111980438
0.09664718806743622
0.13199999928474426
-0.2786666750907898
-0.25089943408966064
-0.21928177773952484
-0.19277796149253845
-0.15482713282108307
-0.14272767305374146
-0.10018693655729294
-0.06065499037504196
-0.04960906505584717
-0.015798859298229218
0.009562106803059578
0.03131068870425224
0.07412566989660263
0.10630868375301361
0.13024912774562836
0.1613333523273468
-0.24933332204818726
-0.22033464908599854
-0.1909075379371643
-0.15782283246517181
-0.13396906852722168
-0.10427803546190262
-0.0743754655122757
-0.04182625934481621
-0.020643431693315506
0.0022612756583839655
0.048753853887319565
0.07562297582626343
0.09215903282165527
0.12159309536218643
0.15912100672721863
0.19066667556762695
-0.2199999988079071
-0.196489155292511
-0.15780337154865265
-0.13151995837688446
-0.09715401381254196
-0.0755344107747078
-0.044247813522815704
-0.006971943192183971
0.01175173930823803
0.03606501594185829
0.06910442560911179
0.1102222427725792
0.1350693553686142
0.16175396740436554
0.19052565097808838
0.2199999988079071
-0.19066666066646576
-0.1613333523273468
-0.13200002908706665
-0.10266660153865814
-0.07333335280418396
-0.04399998486042023
-0.014666616916656494
0.014666706323623657
0.04400002956390381
0.07333335280418396
0.10266664624214172
0.13199999928474426
0.1613333523273468
0.19066673517227173
0.2199999988079071
0.24933332204818726
-0.6013333797454834
-0.5720000267028809
-0.5426666736602783
-0.5133333802223206
-0.484000027179718
-0.4546666741371155
-0.42533332109451294
-0.3960000276565552
-0.366666704416275
-0.3373333513736725
-0.3080000579357147
-0.2786666750907898
-0.24933336675167084
-0.2200000137090683
-0.19066673517227173
-0.1613333523273468
-0.5720000267028809
-0.5422698855400085
-0.5115618705749512
-0.48353609442710876
-0.44047582149505615
-0.41733425855636597
-0.38871803879737854
-0.3769470155239105
-0.33857405185699463
-0.30549749732017517
-0.2767612040042877
-0.24691665172576904
-0.22033168375492096
-0.19111831486225128
-0.16521970927715302
-0.13200002908706665
-0.5426666736602783
-0.5147421956062317
-0.4919561743736267
-0.45077386498451233
-0.4335603713989258
-0.39853206276893616
-0.3690112829208374
-0.329421728849411
-0.32601168751716614
-0.2787686884403229
-0.25684982538223267
-0.21862801909446716
-0.20450107753276825
-0.16426141560077667
-0.1300136297941208
-0.10266664624214172
-0.5133333206176758
-0.4888467788696289
-0.46062934398651123
-0.4379299581050873
-0.3985317647457123
-0.3738853335380554
-0.3494001626968384
-0.3078528046607971
-0.28130412101745605
-0.2507646679878235
-0.2267419844865799
-0.18893647193908691
-0.16744981706142426
-0.12911351025104523
-0.09814278781414032
-0.07333329319953918
-0.48399999737739563
-0.45518290996551514
-0.42767009139060974
-0.4023844599723816
-0.36633312702178955
-0.3397488594055176
-0.3105151951313019
-0.27693551778793335
-0.25107038021087646
-0.22475385665893555
-0.20265880227088928
-0.15766972303390503
-0.13365896046161652
-0.09764179587364197
-0.07475308328866959
-0.04399996995925903
-0.4546666741371155
-0.43128257989883423
-0.40931448340415955
-0.3711951673030853
-0.34433886408805847
-0.3192845582962036
-0.2794792652130127
-0.2481854259967804
-0.228303000330925
-0.18890775740146637
-0.15644125640392303
-0.1182769238948822
-0.09538733214139938
-0.07134901732206345
-0.04140091687440872
-0.014666721224784851
-0.42533332109451294
-0.3941912353038788
-0.3602902293205261
-0.3600713312625885
-0.322075217962265
-0.2781001329421997
-0.2468693107366562
-0.2291865199804306
-0.19954173266887665
-0.17068371176719666
-0.12497690320014954
-0.10919103026390076
-0.0743667408823967
-0.037253689020872116
-0.016317153349518776
0.014666646718978882
-0.3959999978542328
-0.37093600630760193
-0.3399878442287445
-0.3260532021522522
-0.2943120002746582
-0.2709987759590149
-0.22945444285869598
-0.2010968029499054
-0.16214600205421448
-0.13562606275081635
-0.09238740801811218
-0.05692792683839798
-0.04945996403694153
-0.017815174534916878
0.0002165737678296864
0.04400002956390381
-0.36666667461395264
-0.336340069770813
-0.3006857633590698
-0.2806975245475769
-0.24657918512821198
-0.1984066665172577
-0.1970742642879486
-0.16226883232593536
-0.14217115938663483
-0.10227584093809128
-0.0826721265912056
-0.028194108977913857
-0.016583209857344627
0.009933657944202423
0.03264225274324417
0.07333329319953918
-0.3373333811759949
-0.3070725202560425
-0.28543591499328613
-0.24190837144851685
-0.20255044102668762
-0.19571468234062195
-0.14073245227336884
-0.13720440864562988
-0.11217692494392395
-0.08375716954469681
-0.04567572847008705
-0.008554904721677303
0.015994513407349586
0.046733222901821136
0.07680812478065491
0.10266664624214172
-0.30800002813339233
-0.2729402482509613
-0.2544936537742615
-0.2146717756986618
-0.17850454151630402
-0.14578817784786224
-0.14770333468914032
-0.09940829128026962
-0.06364230066537857
-0.027961015701293945
-0.004223328083753586
0.010445818305015564
0.045888759195804596
0.07679183781147003
0.10835281014442444
0.13199996948242188
-0.2786666750907898
-0.254511296749115
-0.21732966601848602
-0.1940074861049652
-0.1593179851770401
-0.1326761245727539
-0.11190517991781235
-0.0786907821893692
-0.05814574286341667
-0.003925792407244444
0.01902206800878048
0.048671163618564606
0.07681100815534592
0.11057013273239136
0.1310383528470993
0.1613333523273468
-0.24933332204818726
-0.22131359577178955
-0.1900208294391632
-0.16069601476192474
-0.13719427585601807
-0.10408961772918701
-0.0604737363755703
-0.03393920138478279
-0.008952946402132511
-0.004962710663676262
0.03502738103270531
0.0755271390080452
0.10506993532180786
0.12855269014835358
0.15813475847244263
0.19066664576530457
-0.2199999988079071
-0.19472597539424896
-0.16545692086219788
-0.1239294782280922
-0.10977753251791
-0.08318424969911575
-0.03508061543107033
-0.02246592380106449
0.02127315104007721
0.03405608981847763
0.06782843917608261
0.10134994238615036
0.1363312304019928
0.15853285789489746
0.18841654062271118
0.2199999988079071
-0.19066667556762695
-0.16627344489097595
-0.1255032867193222
-0.11225377023220062
-0.07753825187683105
-0.038966160267591476
-0.012190881185233593
0.012117607519030571
0.03583087399601936
0.08027691394090652
0.108489029109478
0.13708679378032684
0.1531960815191269
0.18287813663482666
0.22068820893764496
0.24933332204818726
-0.1613333374261856
-0.13200002908706665
-0.10266664624214172
-0.07333329319953918
-0.04400002956390381
-0.014666721224784851
0.014666646718978882
0.04400002956390381
0.07333329319953918
0.10266664624214172
0.13199996948242188
0.1613333523273468
0.19066664576530457
0.2199999988079071
0.24933332204818726
0.2786666750907898
-0.5720000267028809
-0.5426666736602783
-0.5133333206176758
-0.48399999737739563
-0.4546666741371155
-0.42533332109451294
-0.3959999978542328
-0.36666667461395264
-0.3373333513736725
-0.30800002813339233
-0.2786667048931122
-0.24933332204818726
-0.2200000286102295
-0.19066664576530457
-0.1613333523273468
-0.13199999928474426
-0.5426666736602783
-0.5159852504730225
-0.4804275929927826
-0.4530857801437378
-0.41672641038894653
-0.406059205532074
-0.3653333783149719
-0.3353176712989807
-0.3008812665939331
-0.2755831480026245
-0.24971893429756165
-0.2177034169435501
-0.19154277443885803
-0.15401482582092285
-0.14118169248104095
-0.10266658663749695
-0.5133333206176758
-0.485114187002182
-0.4573707580566406
-0.4179058074951172
-0.39425668120384216
-0.3667314946651459
-0.34098511934280396
-0.3001538813114166
-0.2960899770259857
-0.24774128198623657
-0.20623750984668732
-0.19111141562461853
-0.15642964839935303
-0.12605024874210358
-0.11198096722364426
-0.07333329319953918
-0.48399999737739563
-0.45355090498924255
-0.41913923621177673
-0.40281742811203003
-0.3885413706302643
-0.3442772328853607
-0.31813740730285645
-0.27380403876304626
-0.2331799864768982
-0.23058082163333893
-0.20438966155052185
-0.16300594806671143
-0.12175355106592178
-0.1099085882306099
-0.0768556147813797
-0.04399999976158142
-0.4546666741371155
-0.4290444850921631
-0.40737709403038025
-0.349091112613678
-0.3192676305770874
-0.30211547017097473
-0.28968891501426697
-0.2516736090183258
-0.21220041811466217
-0.18990768492221832
-0.17494575679302216
-0.13667945563793182
-0.1136680543422699
-0.08124906569719315
-0.05395428091287613
-0.014666616916656494
-0.42533332109451294
-0.3979189693927765
-0.3635714650154114
-0.3503090441226959
-0.3168327808380127
-0.26536035537719727
-0.24256810545921326
-0.19632692635059357
-0.19836211204528809
-0.1634112447500229
-0.14107033610343933
-0.122802734375
-0.09178078919649124
-0.05641037970781326
-0.008352148346602917
0.014666691422462463
-0.3959999978542328
-0.35611841082572937
-0.3370622992515564
-0.30979686975479126
-0.27397722005844116
-0.22095754742622375
-0.22051136195659637
-0.16429507732391357
-0.15466521680355072
-0.14947965741157532
-0.10864017903804779
-0.07955021411180496
-0.040612444281578064
-0.012001329101622105
0.005524142645299435
0.044000059366226196
-0.36666667461395264
-0.33689090609550476
-0.28646039962768555
-0.28685882687568665
-0.24855925142765045
-0.2559660077095032
-0.17607857286930084
-0.15123361349105835
-0.13406533002853394
-0.09402874112129211
-0.07597616314888
-0.03785732015967369
-0.028073763474822044
0.014989095740020275
0.045335981994867325
0.07333338260650635
-0.3373333513736725
-0.3074645698070526
-0.28058919310569763
-0.24880142509937286
-0.21076838672161102
-0.20627832412719727
-0.15395790338516235
-0.13927774131298065
-0.10365314036607742
-0.07631830126047134
-0.03673166781663895
-0.021386701613664627
0.007029435131698847
0.0534515455365181
0.05983053147792816
0.10266667604446411
-0.30799999833106995
-0.27488863468170166
-0.2524549663066864
-0.19062797725200653
-0.18662843108177185
-0.16790196299552917
-0.1162179484963417
-0.11727941781282425
-0.07392087578773499
-0.01814446784555912
-0.011274784803390503
0.03518905118107796
0.042689450085163116
0.07250098884105682
0.10629544407129288
0.13199999928474426
-0.2786666750907898
-0.24182899296283722
-0.22471097111701965
-0.1901209056377411
-0.14827539026737213
-0.13115546107292175
-0.07746250182390213
-0.08119123429059982
-0.04762927442789078
-0.015413874760270119
0.0077104996889829636
0.06458212435245514
0.07630612701177597
0.11492983996868134
0.13192316889762878
0.16133330762386322
-0.24933332204818726
-0.2145422250032425
-0.18026675283908844
-0.15562723577022552
-0.1425989717245102
-0.10032674670219421
-0.07712269574403763
-0.054643407464027405
-0.02670329436659813
0.033556342124938965
0.06048635020852089
0.08944464474916458
0.07555380463600159
0.13804474472999573
0.1580226719379425
0.19066670536994934
-0.2199999988079071
-0.19471117854118347
-0.16026712954044342
-0.13194024562835693
-0.10284437239170074
-0.07369069755077362
-0.05175676569342613
-0.014089740812778473
0.017591819167137146
0.041877493262290955
0.06811577826738358
0.10262864083051682
0.13025709986686707
0.15094232559204102
0.18330757319927216
0.2199999988079071
-0.19066664576530457
-0.1638553887605667
-0.13633134961128235
-0.09683050960302353
-0.08536804467439651
-0.05603538453578949
-0.010197936557233334
0.014086893759667873
0.029060563072562218
0.08421081304550171
0.10886786133050919
0.12919959425926208
0.15819807350635529
0.1941075176000595
0.224050372838974
0.24933332204818726
-0.1613333523273468
-0.13182207942008972
-0.10404051840305328
-0.06631480157375336
-0.04016774147748947
-0.013472452759742737
0.028133828192949295
0.05197061225771904
0.06054478883743286
0.10540694743394852
0.13114142417907715
0.16121210157871246
0.19615744054317474
0.22131893038749695
0.2500747740268707
0.2786666750907898
-0.13199999928474426
-0.10266660153865814
-0.07333329319953918
-0.04399999976158142
-0.01466667652130127
0.014666631817817688
0.04399999976158142
0.07333338260650635
0.10266667604446411
0.13199999928474426
0.16133330762386322
0.19066670536994934
0.2200000286102295
0.24933335185050964
0.2786666750907898
0.30799999833106995
-0.5426666736602783
-0.5133333802223206
-0.48399996757507324
-0.4546666741371155
-0.4253333508968353
-0.3959999680519104
-0.36666667461395264
-0.3373333513736725
-0.30800002813339233
-0.2786666750907898
-0.24933336675167084
-0.2199999988079071
-0.19066670536994934
-0.1613333523273468
-0.13199999928474426
-0.10266667604446411
-0.5133333206176758
-0.4870658218860626
-0.4517061114311218
-0.4288695156574249
-0.3897969424724579
-0.36822256445884705
-0.35330328345298767
-0.30638203024864197
-0.2665180563926697
-0.2571942210197449
-0.221705824136734
-0.186675027012825
-0.15614299476146698
-0.14450599253177643
-0.10708196461200714
-0.07333335280418396
-0.48399999737739563
-0.4610879421234131
-0.4311407208442688
-0.39824023842811584
-0.37937358021736145
-0.3174128234386444
-0.28796544671058655
-0.27991294860839844
-0.24105824530124664
-0.22467635571956635
-0.19399172067642212
-0.14199841022491455
-0.1555323749780655
-0.10155629366636276
-0.07545890659093857
-0.04400002956390381
-0.4546666741371155
-0.4204149544239044
-0.40126511454582214
-0.36163151264190674
-0.3322604298591614
-0.3154607117176056
-0.26281294226646423
-0.26591864228248596
-0.2319234013557434
-0.21421217918395996
-0.17450504004955292
-0.12403707206249237
-0.09622564166784286
-0.07683002948760986
-0.03940614312887192
-0.01466667652130127
-0.4253333508968353
-0.3935677707195282
-0.3794492185115814
-0.3284931778907776
-0.3189370036125183
-0.2495759278535843
-0.23429980874061584
-0.21771074831485748
-0.1700599640607834
-0.15133443474769592
-0.13783924281597137
-0.09122925996780396
-0.07697474211454391
-0.05350125953555107
-0.027815012261271477
0.014666646718978882
-0.3959999680519104
-0.3644905090332031
-0.3488830029964447
-0.31875771284103394
-0.26830166578292847
-0.2495759278535843
-0.22726410627365112
-0.178719162940979
-0.14324407279491425
-0.1377250850200653
-0.13084307312965393
-0.05556846037507057
-0.04202067852020264
-0.03105892241001129
0.013901541009545326
0.04399999976158142
-0.36666667461395264
-0.3445817232131958
-0.31097012758255005
-0.25404393672943115
-0.2693316638469696
-0.2052963525056839
-0.2076871395111084
-0.14764851331710815
-0.14672839641571045
-0.10361731052398682
-0.08779620379209518
-0.0590631440281868
-0.012009602971374989
0.017906608060002327
0.04330414533615112
0.07333333790302277
-0.3373333513736725
-0.31731465458869934
-0.28672078251838684
-0.25525012612342834
-0.21928928792476654
-0.18951795995235443
-0.16602346301078796
-0.12038759142160416
-0.0976240485906601
-0.07770731300115585
-0.06286504119634628
-0.0029956710059195757
0.002487901132553816
0.040086403489112854
0.07176665216684341
0.1026667058467865
-0.30800002813339233
-0.28284144401550293
-0.25214481353759766
-0.2084270417690277
-0.18268518149852753
-0.1653488725423813
-0.1426621675491333
-0.09238792955875397
-0.051780011504888535
-0.029707618057727814
0.00016591808525845408
0.02576867863535881
0.06897825002670288
0.07278233021497726
0.10993389785289764
0.13199995458126068
-0.2786666750907898
-0.2529590427875519
-0.23484580218791962
-0.19278985261917114
-0.14659278094768524
-0.13365986943244934
-0.11009333282709122
-0.0663328468799591
-0.050815895199775696
-0.0027868221513926983
0.006412030663341284
0.03925638273358345
0.06969958543777466
0.0949818566441536
0.1415746808052063
0.1613333374261856
-0.24933336675167084
-0.2176591157913208
-0.1954384595155716
-0.15728861093521118
-0.13507169485092163
-0.10691409558057785
-0.07408028841018677
-0.04700874164700508
-0.0070947096683084965
0.019106406718492508
0.05367758125066757
0.08558426797389984
0.08515091240406036
0.13407915830612183
0.15918442606925964
0.19066664576530457
-0.2199999988079071
-0.19885633885860443
-0.170215904712677
-0.12181638181209564
-0.10008833557367325
-0.07223324477672577
-0.04651201516389847
-0.0150641780346632
0.02711542882025242
0.03620372712612152
0.0677729919552803
0.10255851596593857
0.13602128624916077
0.1730797439813614
0.20426307618618011
0.2199999988079071
-0.19066670536994934
-0.161803737282753
-0.13135001063346863
-0.1041477844119072
-0.07460436969995499
-0.053386472165584564
-0.027087191119790077
0.021403370425105095
0.042733922600746155
0.0578438937664032
0.09520002454519272
0.14221175014972687
0.15216867625713348
0.17704178392887115
0.21101514995098114
0.24933332204818726
-0.1613333523273468
-0.12689095735549927
-0.09951996058225632
-0.0769651010632515
-0.041261956095695496
-0.02173110656440258
0.015356064774096012
0.040089402347803116
0.06327410787343979
0.11045323312282562
0.1144428700208664
0.1659960150718689
0.18519781529903412
0.22846344113349915
0.2576189935207367
0.2786666750907898
-0.13199999928474426
-0.09328069537878036
-0.0855996385216713
-0.03485366329550743
-0.012576044537127018
0.02446925826370716
0.030446240678429604
0.07287938892841339
0.09624245017766953
0.13465137779712677
0.16036218404769897
0.19078974425792694
0.20965859293937683
0.24710720777511597
0.2853086590766907
0.30799996852874756
-0.10266667604446411
-0.07333335280418396
-0.04399996995925903
-0.014666616916656494
0.014666646718978882
0.04399999976158142
0.07333333790302277
0.1026667058467865
0.13200002908706665
0.1613333374261856
0.19066664576530457
0.2199999988079071
0.24933332204818726
0.2786666750907898
0.30799996852874756
0.3373333215713501
-0.5133333206176758
-0.48399996757507324
-0.4546666741371155
-0.42533329129219055
-0.3959999680519104
-0.36666661500930786
-0.3373332619667053
-0.30799993872642517
-0.2786666750907898
-0.24933330714702606
-0.21999996900558472
-0.19066664576530457
-0.16133329272270203
-0.13199995458126068
-0.10266664624214172
-0.07333332300186157
-0.48399999737739563
-0.45813021063804626
-0.423033207654953
-0.3993191123008728
-0.36813849210739136
-0.34187930822372437
-0.29967132210731506
-0.28151169419288635
-0.24512861669063568
-0.22038911283016205
-0.18904626369476318
-0.1631898730993271
-0.12617647647857666
-0.10823098570108414
-0.07334700971841812
-0.04399999976158142
-0.4546666443347931
-0.4290318191051483
-0.39795956015586853
-0.3498094081878662
-0.3279193639755249
-0.31204405426979065
-0.2912030816078186
-0.23803304135799408
-0.21748130023479462
-0.18415644764900208
-0.16168567538261414
-0.14268840849399567
-0.11626897007226944
-0.06444516777992249
-0.032542359083890915
-0.014666721224784851
-0.42533332109451294
-0.39746755361557007
-0.36134666204452515
-0.31614241003990173
-0.3087642788887024
-0.3021462857723236
-0.24961896240711212
-0.21401706337928772
-0.18336232006549835
-0.13354989886283875
-0.14188160002231598
-0.09687160700559616
-0.06802765280008316
-0.044373493641614914
-0.002483815187588334
0.014666631817817688
-0.3959999680519104
-0.37234798073768616
-0.34157058596611023
-0.3061310648918152
-0.2815951406955719
-0.2720048725605011
-0.22696278989315033
-0.19412370026111603
-0.16475871205329895
-0.12968306243419647
-0.09939693659543991
-0.07179273664951324
-0.03513599932193756
-0.023030785843729973
0.007817139849066734
0.04399999976158142
-0.36666661500930786
-0.35060277581214905
-0.3103258013725281
-0.2655916213989258
-0.21902291476726532
-0.2071525901556015
-0.1948617845773697
-0.1588519662618637
-0.12012727558612823
-0.07744300365447998
-0.054737988859415054
-0.030638661235570908
-0.0025413804687559605
0.010768210515379906
0.052780549973249435
0.07333335280418396
-0.3373332917690277
-0.3219078481197357
-0.28024038672447205
-0.2553880214691162
-0.20936928689479828
-0.1891358643770218
-0.1594642996788025
-0.12143425643444061
-0.08285915106534958
-0.03600166365504265
-0.03631773591041565
-0.012099646031856537
0.022496666759252548
0.03989031910896301
0.07493197172880173
0.10266672074794769
-0.30799996852874756
-0.2828204035758972
-0.24790987372398376
-0.21770304441452026
-0.1904531866312027
-0.17791496217250824
-0.1341002732515335
-0.10473369807004929
-0.07845988124608994
-0.036070290952920914
-0.03549375757575035
0.014840053394436836
0.043677911162376404
0.0714225098490715
0.10582011193037033
0.13200004398822784
-0.2786666750907898
-0.23968154191970825
-0.23150761425495148
-0.20290817320346832
-0.15334515273571014
-0.1409694254398346
-0.10755085945129395
-0.06927657127380371
-0.05413759499788284
-0.020409276708960533
0.022786203771829605
0.06471460312604904
0.08249182254076004
0.09998037666082382
0.12876443564891815
0.1613333821296692
-0.24933333694934845
-0.22193053364753723
-0.18553060293197632
-0.15320970118045807
-0.1219676062464714
-0.09740141779184341
-0.07120231539011002
-0.048374731093645096
-0.018133200705051422
0.011319246143102646
0.0524633415043354
0.06599432975053787
0.10707255452871323
0.1439477950334549
0.15471668541431427
0.19066667556762695
-0.2199999839067459
-0.18955504894256592
-0.15043963491916656
-0.1384366899728775
-0.11657757312059402
-0.06529100984334946
-0.06632553786039352