# vtk DataFile Version 3.0
Zombie mixed Neumann point cloud
ASCII
DATASET POLYDATA
POINTS 91 float
-0.6596972942352295 0.8910518884658813 -0.30333566665649414
0.7575875520706177 -0.12066405266523361 -0.7035435438156128
0.5974235534667969 -0.788273811340332 1.0951755046844482
0.998964786529541 0.13117805123329163 -0.0831940546631813
-0.7417767643928528 0.2248968780040741 -0.16252897679805756
-0.9091472029685974 0.753723680973053 -0.9162097573280334
-1.0707875490188599 -0.5128036141395569 -1.099927306175232
0.7115961909294128 0.9328017234802246 0.1937328428030014
0.8283852338790894 -0.7839478850364685 -0.06914067268371582
0.7784563899040222 0.7398754954338074 0.7339404821395874
-0.4642740488052368 1.0847232341766357 0.4517281651496887
-0.6521300077438354 0.21705704927444458 0.034916263073682785
0.4626941382884979 0.27601179480552673 -1.0220332145690918
-0.682064414024353 0.16739705204963684 0.05461305007338524
0.3140491545200348 0.0111618060618639 -0.9707170724868774
0.09825269877910614 0.8689953088760376 -0.3118877410888672
-0.9542902112007141 0.465786874294281 -0.6497268080711365
1.095146656036377 -0.2021600902080536 -0.917863667011261
-0.6876940131187439 -0.6924411654472351 0.1863125115633011
-0.25966039299964905 -0.9053585529327393 -0.8380503058433533
0.03260670602321625 -0.7847458720207214 -0.4335295557975769
-0.31863224506378174 -0.2102651745080948 -0.9189534187316895
-0.624708890914917 -0.15649913251399994 0.9876670837402344
0.9113402366638184 -0.51179438829422 0.007656418718397617
0.36043936014175415 -0.808712363243103 0.32652518153190613
1.089882493019104 0.37021133303642273 -0.21738897264003754
-0.9864264130592346 0.9868671894073486 0.35059064626693726
0.6154468655586243 -0.6136801838874817 0.5795626640319824
-0.6228514909744263 0.16224108636379242 -0.2921888530254364
-0.973013162612915 -0.8639322519302368 0.8164653778076172
-0.6221503019332886 0.10080892592668533 -0.7655467987060547
0.1395980715751648 0.7221135497093201 0.7833094000816345
-0.6869515180587769 0.15269893407821655 0.16364599764347076
-0.33410772681236267 0.3590547740459442 -0.35397401452064514
0.42878657579421997 -1.012044906616211 0.6659331917762756
0.7470608949661255 0.8725191950798035 0.24636104702949524
0.31163421273231506 -0.8937953114509583 0.905988872051239
-0.4202122688293457 0.26051586866378784 -0.42972612380981445
0.24658848345279694 0.9353106021881104 0.966346263885498
0.4856395423412323 0.3127565085887909 0.15506726503372192
0.6771429777145386 0.6707468032836914 -1.0226595401763916
0.11951297521591187 -0.7397481799125671 -1.0599464178085327
0.8708589673042297 0.2134418487548828 -0.7113040685653687
-1.058240532875061 -0.22946353256702423 -0.31041908264160156
0.4518754184246063 -0.8986920714378357 -0.12122511118650436
0.8227063417434692 0.15437138080596924 -0.1772887110710144
-0.0363595075905323 0.6921161413192749 0.6000056266784668
-0.04117033630609512 -0.6144019961357117 0.2267390340566635
-0.9024172425270081 0.005284152925014496 -0.12897351384162903
0.8491952419281006 -0.2589491605758667 0.06697248667478561
0.8692779541015625 -0.30343785881996155 0.32193076610565186
-1.0111322402954102 -0.06714633852243423 -0.0278729610145092
-0.25165626406669617 0.37611886858940125 -0.665546178817749
-0.4696560204029083 0.5015245079994202 0.2665374279022217
-0.803816020488739 -0.08538587391376495 -0.03730471059679985
0.7926979064941406 0.20373493432998657 0.27034714818000793
-0.5686670541763306 -0.870788037776947 -0.4080002009868622
-0.5756781101226807 -0.646914005279541 -0.05330563709139824
0.04198974370956421 -0.6270470023155212 -0.3838268518447876
0.1484319120645523 -0.7547793984413147 0.3025456666946411
0.6236308813095093 0.556435763835907 0.7035858035087585
0.2708682119846344 -0.174669086933136 -1.0311164855957031
0.8450531959533691 0.7797946333885193 0.7854923605918884
0.28919535875320435 -0.8331652879714966 -0.39369139075279236
-0.671519935131073 0.21783752739429474 0.889776349067688
1.0695348978042603 0.4940280318260193 0.1344824582338333
-0.9465924501419067 1.0875742435455322 -0.8812798857688904
-0.8201882243156433 0.7817567586898804 0.6270414590835571
0.6028259992599487 -0.9177391529083252 -0.6575233340263367
-0.7394232749938965 0.7612720727920532 0.7037699818611145
0.20142965018749237 -0.6406868100166321 -0.6864356398582458
-0.6714044809341431 0.8038728833198547 -0.5396222472190857
-0.6399648189544678 0.9338188171386719 0.04812989756464958
0.22033749520778656 -0.7193241119384766 0.5476784110069275
0.7523025274276733 0.7963607311248779 0.939108669757843
-0.23475347459316254 0.002902714302763343 -0.9483413100242615
-0.796744704246521 -1.0882402658462524 0.2394973337650299
-1.046593189239502 -1.0791558027267456 0.1735832393169403
-0.8399350643157959 0.7966421842575073 -0.2829473912715912
0.2360338419675827 0.8401694297790527 -0.731531023979187
-0.5282706022262573 0.5016127228736877 0.36226686835289
0.4061626195907593 0.9940233826637268 0.2164023071527481
0.9843600988388062 -0.8895124197006226 -0.13634808361530304
0.7606995701789856 0.9795093536376953 -0.7686585783958435
1.0588299036026 -0.33533725142478943 0.06587754935026169
-0.7912101745605469 -0.4335038363933563 0.1836705207824707
0.8915683031082153 -0.9471817016601562 0.3472835421562195
-0.8144690990447998 -1.0523556470870972 1.0030847787857056
0.9882246851921082 -0.553982138633728 -1.0175303220748901
-0.348865270614624 0.5976141691207886 0.5695132613182068
0.5813174843788147 0.7522855401039124 -0.8554500937461853
VERTICES 91 182
1 0
1 1
1 2
1 3
1 4
1 5
1 6
1 7
1 8
1 9
1 10
1 11
1 12
1 13
1 14
1 15
1 16
1 17
1 18
1 19
1 20
1 21
1 22
1 23
1 24
1 25
1 26
1 27
1 28
1 29
1 30
1 31
1 32
1 33
1 34
1 35
1 36
1 37
1 38
1 39
1 40
1 41
1 42
1 43
1 44
1 45
1 46
1 47
1 48
1 49
1 50
1 51
1 52
1 53
1 54
1 55
1 56
1 57
1 58
1 59
1 60
1 61
1 62
1 63
1 64
1 65
1 66
1 67
1 68
1 69
1 70
1 71
1 72
1 73
1 74
1 75
1 76
1 77
1 78
1 79
1 80
1 81
1 82
1 83
1 84
1 85
1 86
1 87
1 88
1 89
1 90
POINT_DATA 91
SCALARS solution float 1
LOOKUP_TABLE default
0.005197005346417427
-0.0694216713309288
0.9063140749931335
1.0765697956085205
-0.685515820980072
-1.0733237266540527
-2.683591365814209
1.6506036520004272
-0.14644664525985718
2.351853847503662
1.0643492937088013
-0.027644643560051918
-0.41329002380371094
-0.674549400806427
-0.923643946647644
0.7829366326332092
-1.0025404691696167
-0.022383013740181923
-1.3568059206008911
-2.002532482147217
-1.2726458311080933
-1.7612104415893555
0.1852588951587677
0.6236626505851746
0.07402278482913971
1.1848251819610596
0.33973807096481323
0.5799978971481323
-1.1418578624725342
-1.0706257820129395
-1.207138180732727
1.7326550483703613
-0.06194804608821869
-0.41797253489494324
0.10594423115253448
1.7264490127563477
0.17873190343379974
-1.004061222076416
2.1147921085357666
1.1566565036773682
0.293895423412323
-1.702505111694336
0.040235456079244614
-1.6027580499649048
-0.6489262580871582
0.7183590531349182
0.8230433464050293
-0.12623631954193115
-1.4079415798187256
0.8099644780158997
0.6648967266082764
-1.3119944334030151
-0.9860870242118835
0.589158296585083
-1.0496118068695068
1.4023321866989136
-2.176372766494751
-1.3287172317504883
-1.188361406326294
-0.4220747649669647
2.188741445541382
-1.0309662818908691
2.321038007736206
-0.5654998421669006
0.35274970531463623
1.691531777381897
-0.742729127407074
0.5832257270812988
-0.8939929008483887
0.7721102833747864
-1.0275906324386597
-0.4328439235687256
0.45195987820625305
-0.5061266422271729
2.5279433727264404
-1.2294198274612427
-1.667073369026184
-1.959544062614441
-0.28875020146369934
0.3689829409122467
0.20273132622241974
1.638687252998352
-0.07368237525224686
0.9015628099441528
0.6396446824073792
-1.1566073894500732
0.38524892926216125
-0.8561475872993469
-0.6446788311004639
0.4544558823108673
0.4513852596282959
SCALARS exact float 1
LOOKUP_TABLE default
-0.07198107242584229
-0.06662004441022873
0.9043252468109131
1.0469487830996513
-0.6794088631868362
-1.0716332793235779
-2.6835184693336487
1.8381307572126389
-0.02470332384109497
2.252272367477417
1.0721773505210876
-0.4001566953957081
-0.28332728147506714
-0.46005431190133095
-0.6455061119049788
0.6553602665662766
-1.1382301449775696
-0.024877101182937622
-1.193822667002678
-2.0030692517757416
-1.185668721795082
-1.447850838303566
0.20645906031131744
0.407202267087996
-0.12174782156944275
1.2427048534154892
0.35103142261505127
0.581329345703125
-0.7527992576360703
-1.0204800367355347
-1.286888174712658
1.6450210213661194
-0.37060658633708954
-0.3290269672870636
0.08267486095428467
1.8659411370754242
0.3238277733325958
-0.5894225239753723
2.1482453495264053
0.9534633159637451
0.3252302408218384
-1.680181622505188
0.3729967474937439
-1.5981231480836868
-0.5680417641997337
0.7997890114784241
1.2557622604072094
-0.4288332983851433
-1.0261066034436226
0.6572185680270195
0.8877708613872528
-1.1061515398323536
-0.541083574295044
0.2984059154987335
-0.9265066049993038
1.2667799890041351
-1.8474552929401398
-1.27589775249362
-0.9688841104507446
-0.3038018196821213
1.8836524486541748
-0.9349173605442047
2.410340189933777
-0.9376613199710846
0.43609394133090973
1.6980453878641129
-0.7402980923652649
0.5886099934577942
-0.9724364876747131
0.7256187796592712
-1.1256927996873856
-0.407153844833374
0.3419838957488537
0.04869179427623749
2.4877719283103943
-1.1801920703146607
-1.6454876363277435
-1.9521657526493073
-0.32624027132987976
0.3446722477674484
0.33560898900032043
1.6165883094072342
-0.041500404477119446
0.9715503454208374
0.7893702015280724
-1.0410434901714325
0.29167014360427856
-0.8637399673461914
-0.58328777551651
0.8182621598243713
0.47815293073654175
SCALARS abs_error float 1
LOOKUP_TABLE default
0.07717807777225971
0.0028016269207000732
0.001988828182220459
0.02962101250886917
0.006106957793235779
0.0016904473304748535
7.289648056030273e-05
0.1875271052122116
0.12174332141876221
0.09958148002624512
0.007828056812286377
0.37251205183565617
0.1299627423286438
0.21449508890509605
0.2781378347426653
0.12757636606693268
0.13568967580795288
0.002494087442755699
0.1629832535982132
0.0005367696285247803
0.08697710931301117
0.3133596032857895
0.021200165152549744
0.21646038349717855
0.19577060639858246
0.057879671454429626
0.011293351650238037
0.0013314485549926758
0.38905860483646393
0.050145745277404785
0.07974999397993088
0.08763402700424194
0.30865854024887085
0.08894556760787964
0.023269370198249817
0.13949212431907654
0.14509586989879608
0.4146386981010437
0.03345324099063873
0.20319318771362305
0.03133481740951538
0.02232348918914795
0.3327612914144993
0.0046349018812179565
0.08088449388742447
0.08142995834350586
0.4327189140021801
0.3025969788432121
0.381834976375103
0.15274590998888016
0.22287413477897644
0.20584289357066154
0.4450034499168396
0.2907523810863495
0.12310520187020302
0.13555219769477844
0.3289174735546112
0.05281947925686836
0.21947729587554932
0.11827294528484344
0.30508899688720703
0.09604892134666443
0.0893021821975708
0.37216147780418396
0.0833442360162735
0.006513610482215881
0.002431035041809082
0.005384266376495361
0.07844358682632446
0.04649150371551514
0.09810216724872589
0.025690078735351562
0.10997598245739937
0.5548184365034103
0.04017144441604614
0.04922775714658201
0.021585732698440552
0.007378309965133667
0.03749006986618042
0.02431069314479828
0.1328776627779007
0.02209894359111786
0.03218197077512741
0.06998753547668457
0.1497255191206932
0.11556389927864075
0.09357878565788269
0.007592380046844482
0.06139105558395386
0.36380627751350403
0.02676767110824585
SCALARS mean_steps float 1
LOOKUP_TABLE default
358.09765625
255.40234375
14.8046875
177.26171875
587.4375
88.76953125
0.0
162.66015625
193.85546875
152.2890625
20.32421875
746.16015625
104.625
643.796875
215.28515625
1669.83984375
137.9765625
15.12890625
555.234375
121.5390625
406.30859375
326.3203125
223.109375
312.265625
635.0625
65.0078125
48.94140625
604.41796875
832.64453125
97.4609375
343.09375
334.8984375
785.31640625
1585.26171875
151.06640625
208.34765625
270.34375
1243.546875
88.88671875
927.55078125
79.125
32.5859375
183.80859375
94.15625
317.59765625
462.796875
588.484375
1527.86328125
360.1953125
389.5546875
485.671875
159.27734375
1053.62109375
698.8203125
547.98828125
571.06640625
216.28125
619.9921875
880.96484375
927.26171875
285.7890625
97.19921875
129.86328125
374.171875
303.2421875
77.234375
20.46875
151.7109375
129.04296875
122.6796875
311.4921875
350.71875
200.6328125
1116.984375
57.578125
358.5078125
27.07421875
28.26171875
296.765625
414.8828125
636.12109375
253.8671875
49.12109375
104.23046875
102.75390625
517.1484375
105.16796875
53.39453125
64.125
649.90234375
183.55078125
SCALARS std_error float 1
LOOKUP_TABLE default
0.10845399841679054
0.13550506436158416
0.004132753124389685
0.11821879151974059
0.1690497433931817
0.06017517002863807
0.0
0.13634341353681598
0.09279547479802851
0.06920725338400623
0.014771778666782573
0.30595581463554544
0.1396755912364042
0.15791714687597322
0.1196948006211099
0.3335095985102235
0.10290218271702588
0.003416734657843995
0.19393433715559807
0.06487894998682497
0.17097624506146336
0.15239334521823242
0.09515576608343741
0.12969275601778082
0.1728563469693373
0.04885812553022574
0.030761562642200913
0.2855452144798915
0.2326617085397427
0.04742184194346852
0.1288003414191547
0.12837273558947543
0.19170234121849078
0.30839599840336335
0.10108914472417208
0.11491735542196194
0.11996024043067921
0.2963585125292204
0.09421587959427737
0.2543690352010008
0.061030961846234404
0.014521613565388478
0.2974130372762727
0.053694189234739696
0.11975868348063665
0.1667119513522437
0.19250134142494987
0.2922711905301569
0.15238009532783417
0.1865441475600224
0.17958940025718736
0.09019953315147786
0.28008439337660235
0.21156367326971773
0.2677296954041821
0.19359250897247596
0.1164917078530849
0.18828436583793914
0.21636723569506858
0.25561402474511574
0.1165301283035347
0.05726717250106968
0.09420907353614154
0.25152273159932226
0.1045517929700918
0.06589176928888238
0.0075527472846891545
0.08510739758174372
0.09646253087572318
0.07617823867625058
0.15066223883223648
0.13891673297395174
0.08976403618444825
0.25584576111894547
0.025710845629427388
0.14238758288478104
0.014691699734919407
0.00592346303184141
0.11125596535419485
0.30655410177644
0.17227181771667172
0.11908973326074032
0.029060177490726972
0.07685096950521327
0.06451120793887878
0.18014718425799028
0.06228283129575734
0.03185898861947776
0.03475485746124474
0.195617590084444
0.07757005588578567
SCALARS samples_used float 1
LOOKUP_TABLE default
256.0
256.0
256.0
256.0
256.0
256.0
1.0
256.0
256.0
256.0
256.0
256.0
256.0
256.0
256.0
256.0
256.0
256.0
256.0
256.0
256.0
256.0
256.0
256.0
256.0
256.0
256.0
256.0
256.0
256.0
256.0
256.0
256.0
256.0
256.0
256.0
256.0
256.0
256.0
256.0
256.0
256.0
256.0
256.0
256.0
256.0
256.0
256.0
256.0
256.0
256.0
256.0
256.0
256.0
256.0
256.0
256.0
256.0
256.0
256.0
256.0
256.0
256.0
256.0
256.0
256.0
256.0
256.0
256.0
256.0
256.0
256.0
256.0
256.0
256.0
256.0
256.0
256.0
256.0
256.0
256.0
256.0
256.0
256.0
256.0
256.0
256.0
256.0
256.0
256.0
256.0
