# vtk DataFile Version 3.0
WoSt boundary bias detector
ASCII
DATASET STRUCTURED_POINTS
DIMENSIONS 16 16 16
ORIGIN -0.22 -0.22 -0.22
SPACING 0.029333333 0.029333333 0.029333333
POINT_DATA 4096
SCALARS solution_epsilon float 1
LOOKUP_TABLE default
-0.65999997
-0.63066661
-0.60133338
-0.57200003
-0.54266667
-0.51333332
-0.484
-0.45466667
-0.42533332
-0.396
-0.36666667
-0.33733335
-0.308
-0.27866668
-0.24933335
-0.22
-0.63066661
-0.60133332
-0.57200003
-0.54266667
-0.51333332
-0.484
-0.45466667
-0.42533332
-0.396
-0.36666667
-0.33733332
-0.30800003
-0.27866668
-0.24933334
-0.22000001
-0.19066666
-0.60133338
-0.57200003
-0.54266667
-0.51333332
-0.484
-0.45466667
-0.42533332
-0.39600003
-0.36666667
-0.33733332
-0.30800003
-0.27866668
-0.24933334
-0.22000001
-0.19066669
-0.16133334
-0.57200003
-0.54266667
-0.51333332
-0.484
-0.45466667
-0.42533332
-0.396
-0.36666667
-0.33733332
-0.308
-0.27866668
-0.24933335
-0.22
-0.19066668
-0.16133335
-0.132
-0.54266667
-0.51333332
-0.484
-0.45466667
-0.42533332
-0.396
-0.36666667
-0.33733335
-0.308
-0.27866668
-0.24933335
-0.22000003
-0.19066668
-0.16133335
-0.13200003
-0.10266667
-0.51333332
-0.484
nan
-0.42533332
-0.396
-0.36666667
-0.33733332
-0.30800003
-0.27866668
-0.24933334
-0.22000001
-0.19066669
-0.16133334
-0.13200001
-0.10266669
-0.073333338
-0.484
-0.45466667
-0.42533332
-0.396
-0.36666667
-0.33733332
-0.308
-0.27866668
-0.24933334
-0.22
-0.19066668
-0.16133335
-0.132
-0.10266668
-0.073333353
-0.044
-0.45466667
-0.42533332
-0.39600003
-0.36666667
-0.33733335
-0.30800003
-0.27866668
-0.24933335
-0.22000001
-0.19066668
-0.16133335
-0.13200003
-0.10266668
-0.073333353
-0.04400003
-0.014666677
-0.42533332
-0.396
-0.36666667
-0.33733332
-0.308
-0.27866668
-0.24933334
-0.22000001
-0.19066668
-0.16133334
-0.13200001
-0.10266669
-0.073333338
-0.044000015
-0.014666691
0.014666662
-0.396
-0.36666667
-0.33733332
-0.308
-0.27866668
-0.24933334
-0.22
-0.19066668
-0.16133334
-0.132
-0.10266668
-0.073333353
-0.044
-0.014666677
0.014666647
0.044
-0.36666667
-0.33733332
-0.30800003
-0.27866668
-0.24933335
-0.22000001
-0.19066668
-0.16133335
-0.13200001
-0.10266668
-0.073333353
-0.04400003
-0.014666677
0.014666647
0.04399997
0.073333323
-0.33733335
-0.30800003
-0.27866668
-0.24933335
-0.22000003
-0.19066669
-0.16133335
-0.13200003
-0.10266669
-0.073333353
-0.04400003
-0.014666706
0.014666647
0.04399997
0.073333293
0.10266665
-0.308
-0.27866668
-0.24933334
-0.22
-0.19066668
-0.16133334
-0.132
-0.10266668
-0.073333338
-0.044
-0.014666677
0.014666647
0.044
0.073333323
0.10266665
0.132
-0.27866668
-0.24933334
-0.22000001
-0.19066668
-0.16133335
-0.13200001
-0.10266668
-0.073333353
-0.044000015
-0.014666677
0.014666647
0.04399997
0.073333323
0.10266665
0.13199997
0.16133332
-0.24933335
-0.22000001
-0.19066669
-0.16133335
-0.13200003
-0.10266669
-0.073333353
-0.04400003
-0.014666691
0.014666647
0.04399997
0.073333293
0.10266665
0.13199997
0.16133329
0.19066665
-0.22
-0.19066666
-0.16133334
-0.132
-0.10266667
-0.073333338
-0.044
-0.014666677
0.014666662
0.044
0.073333323
0.10266665
0.132
0.16133332
0.19066665
0.22
-0.63066667
-0.60133332
-0.57200003
-0.54266667
-0.51333332
-0.48400003
-0.45466667
-0.42533332
-0.396
-0.36666667
-0.33733332
-0.30800003
-0.27866668
-0.24933334
-0.22000001
-0.19066666
-0.60133332
-0.57376492
-0.54532945
-0.52101374
-0.47469279
-0.46043077
-0.43371278
-0.40100434
-0.37940994
-0.35267636
-0.30973262
-0.28927159
-0.256446
-0.22650014
-0.19495317
-0.16133332
-0.57200003
-0.55585057
-0.52501565
-0.49824637
-0.4608705
-0.43548086
-0.38118845
-0.3915188
-0.36403462
-0.31111223
-0.29983002
-0.24843173
-0.23539695
-0.1993852
-0.16022879
-0.132
-0.54266667
-0.52668101
-0.51071632
-0.48336574
-0.42883277
-0.405128
-0.41022927
-0.35006404
-0.3670606
-0.25596511
-0.27376539
-0.21619512
-0.18341249
-0.17222632
-0.14165859
-0.10266666
-0.51333332
-0.49160415
-0.46719217
-0.44347963
-0.42555082
-0.37894493
-0.35880232
-0.3260231
-0.27954012
-0.27903911
-0.2261716
-0.20419349
-0.16642693
-0.13630272
-0.10352221
-0.07333333
-0.48400003
-0.47078007
-0.46399266
-0.41140056
-0.40695861
-0.3615773
-0.34681937
-0.35074857
-0.2651318
-0.23540576
-0.21174188
-0.1598068
-0.1458783
-0.13886587
-0.076765873
-0.044
-0.45466667
-0.43374634
-0.40591869
-0.40502426
-0.38334289
-0.34581989
-0.30591884
-0.25930643
-0.26532921
-0.20358706
-0.15362626
-0.168529
-0.13611919
-0.077851109
-0.048737023
-0.014666662
-0.42533332
-0.39962995
-0.44049427
-0.37860057
-0.34265572
-0.31236637
-0.27274692
-0.26876432
-0.25685152
-0.18002409
-0.14940141
-0.099074185
nan
-0.054982305
-0.023614354
0.014666662
-0.396
-0.38577861
-0.38929996
-0.34695366
-0.29609594
-0.30528834
-0.2832785
-0.22203709
-0.18166667
-0.13336912
-0.17167397
-0.075134709
-0.074521802
-0.036564559
0.0036413758
0.044
-0.36666667
-0.34810454
-0.3304942
-0.32255986
-0.32826155
-0.24779955
-0.22392349
-0.21996838
-0.18857048
-0.20877643
-0.08282534
-0.016714362
-0.044003587
-0.0037639686
0.052213456
0.073333338
-0.33733332
-0.31907728
-0.3197186
-0.27315986
-0.29411751
-0.28478271
-0.23140985
-0.14215058
-0.24372704
-0.10508822
-0.052084457
-0.044607233
0.02745419
0.026373019
0.087704971
0.10266666
-0.30800003
-0.27516249
-0.26748517
-0.28707674
-0.23778124
-0.2199865
-0.15529403
-0.13655517
-0.076806143
-0.099672481
-0.080777995
nan
0.035842869
0.044104908
0.10746212
0.13199998
-0.27866668
-0.26017559
-0.23113202
-0.20374799
-0.19334996
-0.21959671
-0.1722471
-0.11426989
-0.064283788
-0.058177482
-0.0022596547
0.05093522
0.034611613
0.11367311
0.12019242
0.16133334
-0.24933334
-0.23827121
-0.24560042
-0.19025671
-0.1424859
-0.12244705
-0.094142571
-0.083954595
0.0091974866
-0.016439069
0.039993107
0.053775281
0.097066127
0.12847541
0.15676884
0.19066666
-0.22000001
-0.19527626
-0.16036639
-0.15635094
-0.10480383
-0.10247207
-0.030058628
-0.040197931
0.051875774
0.040397961
0.079485752
0.10652908
0.13232717
0.15419859
0.19339266
0.21999998
-0.19066666
-0.16133332
-0.132
-0.10266666
-0.07333333
-0.044
-0.014666662
0.014666662
0.044
0.073333338
0.10266666
0.13199998
0.16133334
0.19066666
0.21999998
0.24933334
-0.60133332
-0.57199997
-0.54266667
-0.51333332
-0.48400003
-0.45466667
-0.42533332
-0.39600003
-0.36666667
-0.33733332
-0.30800003
-0.27866668
-0.24933334
-0.22000001
-0.19066669
-0.16133334
-0.57199997
-0.56229687
-0.52526557
-0.48696494
-0.46709931
-0.43655497
-0.39291102
-0.38781998
-0.34801227
-0.34788871
-0.29049629
-0.26541594
-0.2198769
-0.20542938
-0.15638302
-0.132
-0.54266667
-0.52230078
-0.4937917
-0.45832708
-0.4462716
-0.43805784
-0.40452284
-0.34535566
-0.32595983
-0.28296915
-0.27379471
-0.2196511
-0.18929228
-0.19836016
-0.12765795
-0.10266668
-0.51333332
-0.48902977
-0.47534943
-0.45322663
-0.42174011
-0.38272709
-0.38474593
-0.34875193
-0.3293421
-0.27747601
-0.23244524
-0.20034668
-0.23270507
-0.1474659
-0.11657915
-0.073333338
-0.48400003
-0.45211512
-0.42314029
-0.45045608
-0.41859308
-0.40471706
-0.32204649
-0.32231057
-0.22366232
-0.24340372
-0.20924419
-0.20384206
-0.18290161
-0.11071605
-0.085792653
-0.044000007
-0.45466667
-0.43305176
-0.41753495
-0.42903647
-0.34699151
-0.34872353
-0.35289007
-0.36763293
-0.2744287
-0.2524426
-0.20884815
-0.18640453
-0.10819646
-0.078374445
-0.041870933
-0.014666677
-0.42533332
-0.41966209
-0.38548058
-0.40792298
-0.37507743
-0.35975903
-0.33757633
-0.31677553
-0.27328819
-0.26699543
-0.13054627
-0.083029322
-0.088258594
-0.071588732
-0.05356108
0.014666662
-0.39600003
-0.36605099
-0.39124641
-0.36560926
-0.31896862
-0.37046701
-0.38599986
-0.25746644
-0.26908952
-0.16804668
-0.1189013
-0.12808676
-0.054831974
-0.036736984
-0.0136536
0.043999985
-0.36666667
-0.34287232
-0.34562254
-0.32419458
-0.36132196
-0.33249089
-0.37330413
-0.29348549
-0.19386823
-0.19564067
-0.14213707
-0.097907141
-0.021894112
0.024142042
0.038669012
0.073333323
-0.33733332
nan
-0.37553549
-0.3300285
-0.34784037
-0.36721048
-0.26480463
-0.23784073
-0.18637177
-0.15761271
-0.099846318
-0.032238185
0.022219226
0.025141349
0.047497138
0.10266666
nan
-0.31013045
-0.32339641
-0.33531961
-0.27802315
-0.25618485
-0.31620982
-0.21063483
-0.16725615
-0.097600967
-0.083571315
-0.032868668
0.054343402
0.093158722
0.10169161
0.13199998
-0.27866668
-0.28926438
-0.27899584
-0.29596484
-0.1973564
-0.26217845
-0.22136468
-0.14685576
-0.14721765
-0.042499978
-0.017585268
0.00049969903
0.093379214
0.10389344
0.1236899
0.16133331
-0.24933334
-0.23357897
-0.24178165
-0.24197209
-0.25915334
-0.21270795
-0.13316144
-0.2064559
-0.047281444
-0.028563328
0.060369924
0.09899123
0.080694266
0.13482854
0.16515177
0.19066666
-0.22000001
-0.23317017
-0.21941473
-0.17590673
-0.13868037
-0.10823859
-0.088496536
-0.084693551
0.0114185
0.021910183
0.063322246
0.09686213
0.14821638
0.14682755
0.18935433
0.21999998
-0.19066669
-0.18796961
-0.15884978
nan
-0.11633622
-0.092436552
-0.065022506
-0.036566835
0.016287167
0.039530266
0.063462749
0.16071209
0.1583876
0.18930151
0.23460197
0.24933331
-0.16133334
-0.132
-0.10266668
-0.073333338
-0.044000007
-0.014666677
0.014666662
0.043999985
0.073333323
0.10266666
0.13199998
0.16133331
0.19066666
0.21999998
0.24933331
0.27866668
-0.57200003
-0.54266667
-0.51333332
-0.484
-0.45466667
-0.42533335
-0.396
-0.36666667
-0.33733332
-0.308
-0.27866668
-0.24933335
-0.22
-0.19066668
-0.16133335
-0.132
-0.54266667
-0.51288462
-0.50039756
-0.45278549
-0.44330922
-0.38914806
-0.39133161
-0.3512817
-0.32184672
-0.29783928
-0.25685346
-0.22837655
-0.18404759
-0.17259222
-0.13147803
-0.10266666
-0.51333332
-0.50141215
-0.46394488
-0.44986713
-0.42786255
-0.39617959
-0.32824659
-0.31292334
-0.32838285
-0.29913518
-0.2107397
-0.15131757
-0.15331109
-0.15224378
-0.10636982
-0.073333338
-0.484
-0.43951073
-0.45270741
-0.44374987
-0.40548933
-0.37921378
-0.39841583
-0.33642384
-0.30655459
-0.26791665
-0.22739513
-0.1649861
-0.1403075
-0.1077114
-0.070650898
-0.044
-0.45466667
-0.44719508
-0.44077668
-0.43209395
-0.37103161
-0.42523628
-0.32690376
-0.29706708
-0.28335434
-0.22427382
-0.22406352
-0.18711793
-0.10244115
-0.082486957
-0.048979841
-0.014666669
-0.42533335
-0.40726545
-0.41234818
-0.39211759
-0.39812976
-0.3437579
-0.34235564
-0.29204035
-0.27011758
-0.26939943
-0.16569695
-0.10461093
-0.077048346
-0.052971814
-0.033567302
0.014666662
-0.396
-0.39242697
-0.39566204
-0.37250307
-0.39369825
-0.35910648
-0.41584069
-0.3623572
-0.35365215
-0.2317462
-0.14746328
-0.15961935
-0.061767679
-0.032834392
0.027745582
0.044
-0.36666667
-0.38746378
-0.37022176
-0.396213
-0.3527759
-0.33001536
-0.39722672
-0.27444145
-0.2766301
-0.12238771
-0.18606922
-0.098336391
-0.028847095
-0.014430895
0.032237977
0.073333323
-0.33733332
-0.34887895
-0.35944414
-0.43766657
-0.39719564
-0.45782208
-0.41405222
-0.33374101
-0.21762371
-0.20296569
-0.087348081
-0.065857917
-0.027718736
0.0091743805
0.038527887
0.10266666
-0.308
-0.32039297
-0.29345059
-0.36032236
-0.42709464
-0.46253338
-0.31863075
-0.28489473
-0.24865234
-0.11411911
-0.070461355
0.024849825
0.017112732
0.068752289
0.10731314
0.132
-0.27866668
-0.30052614
-0.35714871
-0.36278972
-0.3052825
-0.33341935
-0.34809956
nan
-0.19599026
-0.1402591
-0.1074197
0.027940769
0.03715172
0.13496459
0.13707039
0.16133332
-0.24933335
-0.24140975
-0.28018171
-0.29246941
-0.3481513
-0.30721304
-0.33636984
-0.21817674
-0.1583246
-0.11045837
0.10412156
0.081099316
0.068001978
0.12842153
0.17420016
0.19066665
-0.22
-0.25857911
-0.23456684
-0.29793188
-0.31335005
-0.32580668
-0.17442827
-0.23570541
-0.11031247
-0.06129263
0.036004931
0.11127983
0.17370787
0.18226379
0.212817
0.22
-0.19066668
-0.20715906
-0.22506239
-0.27742592
-0.16076314
-0.19544069
-0.14122024
-0.094012558
-0.0073742266
0.017232766
0.11984254
0.075068198
0.16485769
0.17683946
0.21570146
0.24933332
-0.16133335
-0.16121405
-0.12114897
-0.13227364
-0.095382877
-0.072457716
0.015577882
0.037273452
0.05784598
0.088571943
0.10184532
0.14894179
0.2101869
0.20693447
0.25522181
0.27866665
-0.132
-0.10266666
-0.073333338
-0.044
-0.014666669
0.014666662
0.044
0.073333323
0.10266666
0.132
0.16133332
0.19066665
0.22
0.24933332
0.27866665
0.308
-0.54266667
-0.51333332
-0.48400003
-0.45466667
-0.42533335
-0.39600003
-0.36666667
-0.33733335
-0.308
-0.27866668
-0.24933335
-0.22000003
-0.19066668
-0.16133335
-0.13200003
-0.10266667
-0.51333332
-0.50587171
-0.45344749
-0.42733407
-0.41957071
-0.38662088
-0.36620057
-0.3213684
-0.2864888
-0.27107719
-0.2522893
-0.19002029
-0.17188339
-0.15127294
-0.097336195
-0.07333333
-0.48400003
-0.47337365
-0.41491875
-0.39153221
-0.39382014
-0.33540627
-0.37616625
-0.31278843
-0.29228672
-0.23726659
-0.17761779
-0.12999181
-0.11843865
-0.11445142
-0.074278183
-0.044000007
-0.45466667
-0.43218425
-0.46072906
-0.43324211
-0.35193303
-0.37276578
-0.33346808
-0.34273753
-0.26306543
-0.28659263
-0.15935543
-0.18054129
-0.10454147
-0.10458159
-0.035343185
-0.014666669
-0.42533335
-0.41277406
-0.43073654
-0.37329334
-0.39635316
-0.33938938
-0.33170608
-0.30245927
-0.27261505
-0.25452784
-0.14740391
-0.13947554
-0.17342454
-0.055557929
-0.029636366
0.014666662
-0.39600003
-0.42573509
-0.42224059
-0.41025615
-0.37994194
-0.34183827
-0.30620745
-0.3245441
-0.28004134
-0.22001734
-0.11752525
-0.14450134
-0.063673377
-0.043780476
0.0094665587
0.043999992
-0.36666667
-0.37829378
-0.39810234
-0.37532598
-0.37881088
-0.50642031
-0.45008481
-0.35000551
-0.33833081
-0.13503499
-0.11925337
-0.051931214
-0.068225719
0.043680809
0.047107566
0.07333333
-0.33733335
-0.34940219
-0.41391855
-0.41168919
-0.46714014
-0.46157753
-0.46956378
-0.4325054
-0.22836445
-0.20708582
-0.19877854
-0.070017822
-0.028125547
0.040103991
0.011780105
0.10266665
-0.308
-0.3156966
-0.41637087
-0.44328505
-0.383818
-0.46324992
-0.52681255
-0.36285171
-0.25041136
-0.23733571
-0.098663017
-0.048822258
0.03192208
0.011176353
0.073675685
0.132
-0.27866668
-0.29338813
-0.36478925
-0.50194103
-0.47093987
-0.4479785
-0.58300507
-0.44159472
-0.2491122
-0.17953144
-0.071988262
-0.024148483
0.055175249
0.070597462
0.13393109
0.16133332
-0.24933335
-0.30341676
-0.3720361
-0.36797518
-0.4976463
-0.45790204
-0.42255053
-0.36008275
-0.25677365
-0.011140572
-0.014059272
0.061605535
0.1227387
0.15917806
0.18337834
0.19066665
-0.22000003
-0.25817361
-0.32662717
-0.38197902
-0.41546482
-0.48388544
-0.29386985
-0.37892795
-0.1667808
-0.10174166
0.10307021
0.11562221
0.12764503
0.10975733
0.21941563
0.21999997
-0.19066668
-0.22602922
-0.20500198
-0.30966076
-0.36019421
-0.43096492
-0.23193774
-0.1758398
-0.13853426
0.068223976
0.13413997
0.12847474
0.21853422
0.22869639
0.23609202
0.24933332
-0.16133335
-0.15665707
-0.17896579
-0.24682188
-0.29601085
-0.28203335
-0.32475141
-0.11029499
0.028150257
0.093247764
0.16508539
0.16114724
0.20660904
0.22982945
0.2730487
0.27866665
-0.13200003
-0.14187016
-0.10201754
-0.14726762
-0.10828417
-0.06753435
-0.064998969
0.071393572
0.039916009
0.14961316
0.17681217
0.1791379
0.22813471
0.26936823
nan
0.30799997
-0.10266667
-0.07333333
-0.044000007
-0.014666669
0.014666662
0.043999992
0.07333333
0.10266665
0.132
0.16133332
0.19066665
0.21999997
0.24933332
0.27866665
0.30799997
0.33733332
-0.51333332
-0.48399997
-0.45466667
-0.42533332
-0.39600003
-0.36666667
-0.33733332
-0.30800003
-0.27866668
-0.24933334
-0.22000001
-0.19066669
-0.16133334
-0.13200001
-0.10266669
-0.073333338
-0.48399997
-0.45723355
-0.43737379
-0.39977852
-0.38982481
-0.37782001
-0.30469143
-0.31301734
-0.26986471
-0.22155608
-0.18361241
-0.19116846
-0.13951696
-0.10486767
-0.077844337
-0.044
-0.45466667
-0.42300406
-0.42766494
-0.38868573
-0.37317458
-0.38112515
-0.33055329
-0.2770685
-0.28033182
-0.20231953
-0.19022767
-0.13533704
-0.095658042
-0.054700639
-0.05360068
-0.014666677
-0.42533332
-0.42256635
-0.37130183
-0.3838743
-0.40859738
-0.35423878
-0.33768374
-0.25958216
-0.26048952
-0.19918896
-0.1457535
-0.16865653
-0.06989383
-0.07596983
-0.018319609
nan
-0.39600003
-0.4069916
-0.368018
-0.37115851
-0.37676221
-0.32496938
-0.34355658
-0.37752894
-0.22801617
-0.18226807
-0.1391961
-0.13198438
-0.042733882
-0.026198972
0.040948607
0.043999992
-0.36666667
-0.37954298
-0.35531288
-0.432282
-0.43288615
-0.35027328
-0.3033056
-0.32101056
-0.32830954
-0.2869488
-0.19263431
-0.12053587
0.011790743
-0.0072461949
0.050985001
0.073333323
-0.33733332
-0.33328828
-0.42970517
-0.42707467
-0.3815015
-0.39856496
-0.43011925
-0.40779173
-0.20823398
-0.23779881
-0.10903241
-0.11547517
-0.014463301
0.096986465
0.054509286
0.10266666
-0.30800003
-0.37413833
-0.32469255
-0.38627711
-0.43749794
-0.51773739
-0.41963932
-0.47982976
-0.26103586
-0.24820295
nan
-0.094269909
-0.0067919441
0.044199064
0.14924745
0.13199998
-0.27866668
-0.35056886
-0.38224983
-0.50396198
-0.54642022
nan
-0.54759789
-0.49058574
-0.48098755
-0.33511648
0.040721133
-0.012351857
0.032794777
0.07311251
0.16706559
0.16133332
-0.24933334
-0.28618249
-0.34116024
-0.42793679
-0.57243663
-0.87337565
-0.69201022
-0.66044533
-0.46875212
-0.10831454
-0.0625576
nan
0.082438752
0.17948408
0.19097584
0.19066666
-0.22000001
-0.25551602
-0.39754951
-0.44480196
-0.54801273
nan
-0.68847156
-0.60102117
-0.39170367
-0.071790092
nan
0.14307813
0.092337884
0.19347019
0.23534994
0.21999998
-0.19066669
-0.28210717
-0.29673168
-0.45080703
-0.62093073
-0.58749831
-0.63602853
-0.36852938
-0.1424745
-0.023462629
0.14774644
0.1349221
0.17965204
0.25509968
0.22241424
0.24933331
-0.16133334
-0.19205792
-0.30120584
-0.32940394
-0.5257172
-0.60988861
-0.39075148
-0.19622307
0.096039973
0.091031037
0.068100899
0.10225937
0.24588998
0.26210526
0.24145387
0.27866668
-0.13200001
-0.092160255
-0.20816764
-0.33879039
-0.36753425
-0.71283287
-0.22406599
-0.018618571
-0.037341565
0.11511202
0.16572949
0.23331028
0.22030751
0.29520872
0.29538342
0.30799997
-0.10266669
-0.080636844
-0.088100232
-0.12960798
-0.2509546
-0.16791336
0.056166735
0.030929854
0.056946781
0.091218583
0.16237211
0.21433605
0.28399634
0.29402542
0.32653752
0.33733332
-0.073333338
-0.044
-0.014666677
0.014666662
0.043999992
0.073333323
0.10266666
0.13199998
0.16133332
0.19066666
0.21999998
0.24933331
0.27866668
0.30799997
0.33733332
0.36666667
-0.484
-0.45466664
-0.42533335
-0.396
-0.36666667
-0.33733335
-0.308
-0.27866668
-0.24933334
-0.22
-0.19066668
-0.16133335
-0.132
-0.10266668
-0.073333353
-0.044
-0.45466664
-0.42949823
-0.42080191
-0.40119654
-0.35511905
-0.32627681
-0.285687
-0.27469674
-0.24870369
-0.20733742
-0.19977236
-0.13708919
-0.11974622
-0.094476171
-0.038192324
-0.014666662
-0.42533335
-0.41091031
-0.39955938
-0.39548489
-0.31617841
-0.32462907
-0.3196243
-0.29441071
-0.22868633
-0.1920792
-0.13803756
-0.1268411
-0.07588698
-0.078802794
-0.0036886046
0.014666662
-0.396
-0.37693515
-0.39972484
-0.37365353
-0.31498501
-0.32123306
-0.29682758
-0.34652784
-0.25425473
-0.17058216
-0.17639816
-0.13616404
-0.058853526
-0.03702816
0.029048119
0.044
-0.36666667
-0.33663416
-0.3411217
-0.33669803
-0.36409241
-0.32577905
-0.27086356
-0.30281052
-0.2192196
-0.2776818
-0.13684991
-0.10478901
-0.098338075
0.00070433435
0.036916584
0.07333333
-0.33733335
-0.34387156
-0.3641994
-0.49584976
-0.38520637
-0.34402382
-0.32024038
-0.40117827
-0.28354046
-0.19109006
-0.10051581
-0.091421388
-0.029845009
0.023613552
0.075836755
0.10266666
-0.308
-0.35360703
-0.35704514
-0.40141484
-0.38574269
-0.40557835
-0.43918785
-0.35718149
-0.29954988
-0.31449947
-0.135665
-0.045967538
-0.004616376
0.10317393
0.14980769
0.132
-0.27866668
-0.3114084
-0.35090041
-0.37787011
-0.56835067
-0.51833832
-0.57996303
-0.43800381
-0.32491547
-0.34047419
-0.13177212
-0.051820718
-0.03017151
0.11439019
0.12925968
0.16133332
-0.24933334
-0.27754748
-0.33573475
-0.42983148
-0.5937202
-0.73765904
-0.88959926
-0.76935083
-0.5625236
-0.37112904
-0.06170667
-0.00012409425
0.072437599
0.135516
0.16216397
0.19066666
-0.22
-0.2706064
-0.33966127
-0.45708534
-0.71807742
-0.86984581
-1.0715849
-1.1870476
-0.68814826
-0.37504277
0.047970116
0.13104203
0.15657209
0.18560195
nan
0.22
-0.19066668
-0.27005339
-0.46600389
-0.50514901
nan
-1.1410253
-1.1633486
-0.95039451
-0.42685357
-0.17221369
0.10692167
0.2993924
0.15057212
0.2618553
0.23323743
0.24933332
-0.16133335
-0.18160801
-0.45602569
-0.50313723
-0.94541895
-0.88984305
-0.82670003
-0.4219906
nan
0.1029703
0.18233365
0.33141375
0.26214489
0.26560813
0.22998977
0.27866665
-0.132
-0.22240967
-0.35438257
-0.55837566
-0.85176796
-1.0030669
nan
nan
0.10671312
0.19146006
0.28075391
0.28264272
0.39960456
0.23005435
0.28151652
0.308
-0.10266668
-0.16197789
-0.2667684
-0.24285911
-0.50731766
-1.705235
nan
-0.17197475
-0.013513795
0.41777602
0.29582235
0.29630601
0.25716138
0.26573095
0.3153787
0.33733332
-0.073333353
-0.087460823
-0.071749121
-0.059364524
0.02471118
0.67543274
0.30934849
-0.1128635
0.1994701
0.2096847
0.27725843
0.26562339
0.29547939
0.34486204
0.35270914
0.36666664
-0.044
-0.014666662
0.014666662
0.044
0.07333333
0.10266666
0.132
0.16133332
0.19066666
0.22
0.24933332
0.27866665
0.308
0.33733332
0.36666664
0.396
-0.45466667
-0.42533332
-0.39600003
-0.36666667
-0.33733335
-0.30800003
-0.27866668
-0.24933335
-0.22000001
-0.19066668
-0.16133335
-0.13200003
-0.10266668
-0.073333353
-0.04400003
-0.014666677
-0.42533332
-0.41471416
-0.40688938
-0.3606852
-0.31993532
-0.2824367
-0.24685182
-0.23202378
-0.20973045
-0.20784482
-0.12473822
-0.11241229
-0.091573514
-0.039946388
-0.022292696
0.014666662
-0.39600003
-0.37064424
-0.36278349
-0.32467085
-0.3569881
-0.28335592
-0.25279215
-0.27882749
-0.25120261
-0.14424291
-0.097639792
-0.10214435
-0.094416052
-0.016330702
0.039936569
0.043999985
-0.36666667
-0.34294918
-0.34770054
-0.34744877
-0.3398867
-0.30199385
-0.29727155
-0.24796814
-0.16501985
-0.1758958
-0.16776572
-0.074346796
-0.0086180307
0.016967362
0.03081109
0.073333323
-0.33733335
-0.33592618
-0.31996623
-0.35670418
-0.35486001
-0.25830418
-0.25417709
-0.22077437
-0.2868596
-0.12665738
-0.028640375
-0.070233226
-0.053719133
0.10505141
0.096897386
0.10266665
-0.30800003
-0.31267509
-0.34485549
nan
-0.29924226
-0.36002511
-0.43129289
-0.26762211
-0.21233386
-0.11120037
-0.097927935
0.038421221
-0.010171193
0.06832318
0.10364575
0.13199998
-0.27866668
-0.26608047
-0.32453218
-0.43860197
-0.3817673
-0.4190402
-0.36775157
-0.34410554
-0.32690489
-0.22210798
-0.027415106
0.010991452
0.092385128
0.14657156
0.13190992
0.16133332
-0.24933335
-0.29055473
-0.35460526
-0.45922631
-0.43884724
-0.56335497
-0.54034519
-0.50947481
-0.3152675
-0.31188494
-0.14267965
0.065671884
0.087740198
0.15669639
0.14519542
0.19066665
-0.22000001
-0.30626655
-0.31455234
-0.46918702
-0.57566792
-0.94283074
-1.0184019
-0.97868139
-0.80897021
-0.53581876
-0.13074645
0.071977153
0.22004715
0.16657656
0.1842622
0.21999998
-0.19066668
-0.25567478
-0.43822616
-0.60385996
-0.75620115
-1.3202848
-0.63221502
nan
nan
-0.68872738
-0.1787618
0.17053159
0.26274824
0.17567953
0.19124782
0.24933332
-0.16133335
-0.264909
-0.30877921
-0.63182068
-1.1154575
-2.3873935
-2.0480974
nan
-0.17931743
0.42639673
0.33918926
0.27371687
0.27177778
0.36109444
0.29468471
0.27866665
-0.13200003
-0.21838818
-0.3391459
-0.47481611
-1.2287811
-1.1769927
-0.75858641
nan
nan
0.66345835
0.50045127
0.4652864
0.36838886
0.39639834
0.33375043
0.30799997
-0.10266668
-0.12296069
-0.29743466
-0.462832
-0.97798491
-1.1261902
nan
-0.11201813
0.56542146
0.6041503
0.55288368
0.44662681
0.42397508
0.42050087
0.32888922
0.33733332
-0.073333353
-0.11984539
-0.15348257
-0.34120789
-0.34632856
0.96166956
-1.7697676
-1.4268221
nan
0.5035907
0.48764661
0.45643243
0.3796123
0.37335363
0.37165576
0.36666664
-0.04400003
-0.013709379
-0.10173014
-0.1623375
0.089786597
0.37414941
0.16064367
2.3728423
0.65520918
0.30737537
0.29762152
0.37522265
0.32747599
0.35440251
0.37374231
0.39599997
-0.014666677
0.014666662
0.043999985
0.073333323
0.10266665
0.13199998
0.16133332
0.19066665
0.21999998
0.24933332
0.27866665
0.30799997
0.33733332
0.36666664
0.39599997
0.42533332
-0.42533332
-0.39599997
-0.36666667
-0.33733332
-0.30800003
-0.27866668
-0.24933334
-0.22000001
-0.19066668
-0.16133334
-0.13200001
-0.10266669
-0.073333338
-0.044000015
-0.014666691
0.014666662
-0.39599997
-0.3683615
-0.32480001
-0.33765003
-0.27878171
-0.26373434
-0.22837444
-0.22110161
-0.19730203
-0.14342587
-0.12542573
-0.089385316
-0.06248194
-0.023869775
0.013763948
0.044
-0.36666667
-0.37288687
-0.33707243
-0.32199854
-0.27455515
-0.30464393
-0.23115574
-0.20853281
-0.15639374
-0.16650988
-0.1135842
-0.074732348
-0.017039195
0.022806529
0.031884149
0.073333323
-0.33733332
-0.32320094
-0.31856817
-0.33913663
-0.30488229
-0.28978628
-0.30183521
-0.16022417
-0.29984429
-0.1399087
-0.076499835
-0.045185748
-0.0020372241
0.044602104
nan
0.10266666
-0.30800003
-0.29543304
-0.25917366
-0.34633946
-0.32253715
nan
-0.21673818
-0.19345413
-0.10955661
-0.11403147
-0.013377215
0.0022818323
0.022816077
0.060743839
0.1025746
0.132
-0.27866668
-0.27014232
-0.29303661
-0.35324439
-0.36696342
-0.29898852
-0.22694199
-0.21731168
-0.1501786
-0.0065422775
-0.1832294
-0.0068741152
0.012279611
0.082621187
0.16819818
0.16133332
-0.24933334
-0.28556624
-0.2633045
-0.29578567
-0.30424929
-0.36406362
-0.34047219
-0.26115599
-0.43250662
-0.065145895
-0.004510283
-0.0032578791
0.092435583
0.13901284
0.1742605
0.19066666
-0.22000001
-0.24233288
-0.33604506
-0.4122704
-0.50542319
-0.45692542
-0.47314203
-0.58403462
-0.42667443
nan
-0.025846615
0.13243988
0.096574277
0.23769853
0.21691675
0.21999998
-0.19066668
-0.25285387
-0.3243539
-0.47112912
-0.59585375
-0.83431876
-0.92391098
nan
-0.5821256
-0.16495593
0.059718404
0.1070396
0.12128101
0.16546223
0.25501835
0.24933332
-0.16133334
-0.20633681
-0.37742385
-0.43946776
-0.78307104
0.73895538
nan
-1.1060293
nan
nan
0.50506878
0.31686246
0.2928555
0.26670811
0.28816953
0.27866668
-0.13200001
-0.18847477
-0.32991609
-0.49352911
-0.99886751
nan
nan
nan
nan
nan
1.1064183
nan
0.32024854
0.29923403
0.33611894
0.30799997
-0.10266669
-0.15549304
-0.25705799
-0.49641955
-0.95820886
nan
nan
nan
1.3134491
2.0627258
nan
0.61298007
0.52599227
0.39728868
0.30698293
0.33733332
-0.073333338
-0.13225283
-0.2134645
-0.44687897
-0.84589487
nan
nan
0.70933694
1.718757
1.3558539
0.77831274
0.53434145
0.45718375
0.32832843
0.38321462
0.36666667
-0.044000015
-0.080608577
-0.022269307
-0.15812431
nan
1.3435044
nan
1.166507
0.8918643
0.66250825
0.68124104
0.57759792
0.47053972
0.42006138
0.40234739
0.39599997
-0.014666691
-0.011666647
-0.042149454
-0.033827763
0.15283388
0.65922976
0.68328613
0.75325429
0.64373583
0.49290183
0.45483989
0.42299658
0.40369549
0.4268575
0.40673333
0.42533332
0.014666662
0.044
0.073333323
0.10266666
0.132
0.16133332
0.19066666
0.21999998
0.24933332
0.27866668
0.30799997
0.33733332
0.36666667
0.39599997
0.42533332
0.45466667
-0.396
-0.36666664
-0.33733335
-0.308
-0.27866668
-0.24933335
-0.22
-0.19066668
-0.16133334
-0.132
-0.10266668
-0.073333353
-0.044
-0.014666677
0.014666647
0.044
-0.36666664
-0.33309293
-0.32238069
-0.29552814
-0.2753861
-0.22521691
-0.21273899
-0.16629313
-0.14636534
-0.11299417
-0.088314973
-0.057945147
-0.026968816
0.015281283
0.041879293
0.073333338
-0.33733335
-0.31117627
-0.32052037
-0.28585306
-0.23699778
-0.27507591
-0.19747911
-0.14732271
-0.15991236
-0.071089648
-0.028516665
-0.04917334
0.01821018
0.07829611
0.065152921
0.10266666
-0.308
-0.31806028
-0.26450369
-0.28872123
-0.25958374
-0.22154419
-0.15405621
-0.1137817
-0.18134841
-0.044323009
-0.060275786
0.012788967
0.064124472
0.025271572
0.099765003
0.132
-0.27866668
-0.26379919
-0.27987474
-0.24619068
nan
-0.19096537
-0.1316348
-0.10737403
-0.16712178
-0.048850793
-0.045663465
-0.06483233
0.072986491
0.090350382
0.16603802
0.16133332
-0.24933335
-0.25723085
-0.26297843
-0.1845867
-0.31248271
-0.24549492
-0.23952524
-0.14427961
-0.092970319
-0.00075985549
0.0053427806
0.068476811
0.059230745
0.11607667
0.1703141
0.19066666
-0.22
-0.23951001
-0.27515808
-0.27179202
-0.26165965
-0.25222525
-0.28716105
-0.31062871
-0.14544134
0.064573959
0.12392948
0.10313842
0.27472281
0.20528531
0.22832139
0.22
-0.19066668
-0.20591959
-0.22471982
-0.25734875
-0.27593938
-0.4169175
-0.24700733
-0.30643746
-0.059446573
0.079098977
0.068930775
0.240753
0.24617711
0.20340453
0.25619009
0.24933332
-0.16133334
-0.1932027
-0.25617132
-0.25351876
-0.28724879
-0.56464297
-0.5994485
-0.55960226
-0.092216626
0.083122209
0.23177904
0.20038816
0.24285024
0.25581163
0.30985257
0.27866668
-0.132
-0.17230077
-0.24748224
-0.32950538
-0.39334545
-0.078199551
2.1922412
nan
1.8564838
0.84071279
0.62671489
0.59695113
0.28322002
0.37959716
0.36180604
0.308
-0.10266668
nan
-0.26871157
-0.22033964
-0.33239836
-0.27434799
0.89733148
nan
nan
1.7489163
nan
0.68454677
0.45168784
0.38293177
0.37104636
0.33733332
-0.073333353
-0.20921463
-0.034453645
-0.38263214
nan
0.97151136
1.6342715
1.8562746
2.1405606
nan
1.1254334
0.55791432
0.46299538
0.39262098
0.35600865
0.36666664
-0.044
-0.040529087
-0.19932714
-0.083209045
-0.20682997
nan
1.6786767
nan
1.6502143
1.275205
0.78066665
0.60674727
0.46283767
0.41535836
0.411634
0.396
-0.014666677
-0.015358657
-0.023800243
0.0051641231
0.21367848
nan
1.1462684
1.0535382
1.0283169
0.96795917
0.57168472
0.49185014
0.47064686
0.37889931
0.40969864
0.42533332
0.014666647
0.067986853
0.037379362
0.13978752
0.21751416
0.5416612
0.67556351
0.5902102
0.64760238
0.52271265
0.48367444
0.39885509
0.42840374
0.41041404
0.43057403
0.45466664
0.044
0.073333338
0.10266666
0.132
0.16133332
0.19066666
0.22
0.24933332
0.27866668
0.308
0.33733332
0.36666664
0.396
0.42533332
0.45466664
0.484
-0.36666667
-0.33733332
-0.30800003
-0.27866668
-0.24933335
-0.22000003
-0.19066668
-0.16133335
-0.13200001
-0.10266668
-0.073333353
-0.04400003
-0.014666677
0.014666647
0.04399997
0.073333323
-0.33733332
-0.30297607
-0.27659401
-0.24366415
-0.26518568
-0.2204731
-0.19709204
-0.12571406
-0.12658964
-0.083962865
-0.060112793
-0.0093230493
-0.0032891107
0.034132984
0.085932188
0.10266666
-0.30800003
-0.3020432
-0.25862071
-0.22357956
-0.23042661
-0.20146862
-0.20584194
-0.10617774
-0.1188933
-0.05141855
-0.0057993904
0.0058009494
0.047207687
0.071889229
0.12222668
0.13199998
-0.27866668
-0.25234935
-0.26416031