# vtk DataFile Version 3.0
WoSt manufactured solution point cloud
ASCII
DATASET UNSTRUCTURED_GRID
POINTS 12000 float
0.25019093320933394 0.794427601939151 0.551371380490387
-0.5495856200188163 -0.39966743017754913 0.7471068907925238
-0.9894693908688506 0.6424568367655326 0.5941388575040925
-0.06413009431255845 -0.39393514636137295 -0.44314877579845335
-0.4902608246917508 -0.10984738823470686 0.009096517915906599
0.10699470414898493 0.9910005668687853 0.5853238384275061
0.24435845888232532 0.9779202953637698 -0.5693826035288021
-0.6795759322843109 0.22507920854606156 -0.9121159840772333
-0.9286394424528077 0.02977764054274057 -0.0675879493494218
0.8343355463857045 0.2584525089820209 0.028235293199027733
-0.006253129212991482 -0.5049701559453383 -0.9764119489149883
-0.6151957120293787 0.38406424176367837 -0.5987865520260096
-0.2609273787955866 -0.9925315158958481 0.6600954596034911
-0.6910778378771203 -0.4648013908724291 0.7606643079616573
0.019581619736846356 0.6943004927317387 0.27943433388505245
0.4835418947237142 -0.8170087898739087 0.08228764275297751
0.01554447260069991 0.7426787533857613 -0.2774718819716848
0.19636813441442613 -0.8814967153089928 -0.2247363977785426
-0.3539273074835867 -0.6996005418590963 0.6326762076381514
-0.24110765689937508 0.9574957688224432 0.17998338602122055
0.21011250765970257 0.2759931615766644 0.3529004876255766
-0.6984239616632626 -0.11937306562362493 -0.5208720763409533
-0.19500340379203673 -0.8065918121365088 0.9356561020976428
-0.5699919252882399 0.3435303252225699 -0.3991598370418594
0.7481540522990089 0.3244294766769076 -0.7367683683833885
0.6901486417491058 0.8898963422899591 0.8078335763918536
0.13943829571855448 -0.7090800924781462 -0.6150730100633353
0.8558113694890488 0.10465297533452755 -0.6388950031021767
0.7681137883929399 0.2831434104449615 0.13938854894761588
-0.24742432774015977 -0.17808943568574032 -0.5210215746363103
-0.9238854266175218 0.752437616218542 -0.0645395663718078
0.09527039842747054 -0.35567338043954977 0.5026498397098558
-0.9496062583964793 -0.2556294548695921 -0.9392994112317767
-0.7542157955899813 0.9342964707947354 0.31552146007702886
-0.14355950722103739 0.047480215820960625 0.7456184171295488
-0.3115786660079476 0.18058196457942932 0.36736874667908737
-0.28917244595297587 0.038196972991980216 0.5304947665570452
0.8183586279811004 -0.697875443846369 0.8668387846148571
-0.9896422683691357 0.5059550071955079 0.6210536606344903
-0.7264718969148369 -0.1621926981736297 0.6305125559900913
-0.9714576206307788 0.25692389573258145 0.5860473161960682
0.026007165644416963 0.4516988411021743 -0.5471530346057119
-0.6029577040146543 -0.2737460988992968 -0.641187944865707
-0.3078771217750431 0.8962481228216295 0.14666543522224185
-0.3198638651583203 -0.45695076038242943 0.9040789814150445
-0.11104358070577347 0.9607895017611789 0.031045338212541962
0.04233225805244789 0.7930810474320016 0.4855348364300791
0.1613057277056451 -0.14670099232748335 0.756375718836561
-0.17670770018622317 0.845519152336935 -0.8625692957562769
-0.14000627619767392 0.03902963975571794 0.9018763911636996
-0.4980015066704837 0.6120782945242176 0.3529423999971868
0.4341718085622459 0.2592443656804071 0.9431214169231601
-0.3346370815773503 -0.20344888064125888 -0.5941764955729676
-0.898591889455459 -0.5741836100493216 0.8309287942478165
0.6803376343167793 -0.775188517014842 0.20755805063373067
-0.04160701022075042 0.18936974097655712 0.3185500132181265
-0.3866810182222562 0.9227016894729139 -0.06831992987775015
0.2562017097298137 0.2704523677994264 -0.6322212069806177
-0.8762691636872517 -0.17696635300405017 0.5280601768769373
0.6304435765835434 0.45997849800412993 -0.773590094949554
0.826709723062091 0.6040731559945676 0.755382733299067
0.04660830595035459 0.8312708702014648 -0.9066955240922256
-0.939422332136796 -0.9595688532877062 -0.4944626440950872
-0.5028604535820342 -0.6249933312880669 0.1341116367707913
-0.9220283179339093 0.1807757356697035 -0.6679776939055659
0.3557474171346189 -0.9578492911122178 -0.37885960589361023
0.8766825737292279 0.07679275975448929 0.6231748054935016
0.31605216322345164 0.2215015712270525 -0.6174946398302052
0.14878949651561202 -0.920627163082 0.6033288101837466
0.9201418340523522 0.7080181426836905 -0.8985807080678776
-0.32267983323956306 -0.3639936042754355 -0.77456601655426
0.2532236386562421 0.5949163507326667 -0.37255705599551225
0.7256184698374695 0.5942538256922594 -0.7417241170513504
0.5337183134763106 0.7652414398038365 -0.605434860336507
0.14728235899704623 0.27749993204420575 0.21866851498519968
-0.807508644743913 0.3223829220298984 0.26390944935903726
0.6477709780040286 0.6070253982606566 -0.3456635841346887
0.44409466585310775 0.7345467751447119 0.7858955163815791
-0.6769753461060015 -0.9465952998274307 0.30161488684445725
-0.5706474545124733 0.12741944853413845 0.8896090596136819
-0.24136075149486458 -0.4944508992313865 -0.08697990007626122
0.31448782654146723 -0.7978020642906825 -0.23883047299891458
-0.7325576223229546 0.32489244322850763 0.6611050645263679
-0.2462924371824351 -0.25655209445116345 0.07904331789486907
-0.5698844407238128 -0.5051808167664582 -0.34029543343517177
-0.08514860372356514 -0.8369370793948532 0.5054642727340113
0.15810914885850846 -0.4006122542189976 -0.8449068552979944
0.5263619028029625 -0.7378420234173586 -0.7335867153006435
-0.7386315083854467 -0.8374753777680191 0.812784730800514
-0.46151140065321905 -0.3871788415862796 0.6655886200041352
0.2398469194236028 -0.6257132269185623 -0.13037317524682224
0.7678449294442933 -0.24925196596107257 0.42176310639306736
-0.8063845823270639 0.4546495534770878 0.552947048130493
0.6515335634042652 0.3484019808704224 -0.2585344103474949
-0.8715759996677928 0.03755246812058988 0.5149198127644041
-0.6183235930206457 -0.46752554677411284 0.07224008475874433
0.4966631257958385 0.793173461518359 -0.7485169649316616
-0.6314595742670068 0.5990739427762857 0.2890432460469494
0.44194558361995484 0.9935423300626274 0.8783599173817622
0.6860501336831724 0.554231618106364 -0.2099615695871262
0.28245822121963027 -0.6311087151068422 0.5189889305616118
0.5153813290367775 0.4425904272694381 -0.11040195114644202
-0.24363934241835783 -0.16045813526011732 -0.9333215297775068
0.6886402328229859 0.08473975510954279 -0.22496272199653733
0.09605753653207771 0.4432804370393244 -0.23707826120320852
0.6612813468239838 0.8389266926107741 -0.22513540537871113
-0.7243676913001378 0.5207465919803644 0.9858977174972121
-0.7040237024758706 0.42535135212292974 0.6506468006000805
0.8411438899927222 -0.7532371714448514 -0.8163801736967811
0.9757431636930671 -0.7664870297968234 -0.6463848817262079
0.14990586765803804 -0.10745392742073068 0.5007843826556659
-0.6188855036837733 0.8288555231198389 -0.5656103073845551
0.5382219803732795 -0.8647929494518787 -0.053194824485669256
-0.934883346709614 -0.3723785872057941 -0.37553865164994193
0.4394968782771511 -0.08996503369520026 -0.8864512752141664
0.9907233188579938 0.7773986134166655 0.8326478699468061
-0.5068489398527225 -0.21177949055006406 -0.5456409981732933
-0.7501872356446686 -0.9339521506685287 0.0066728959728139525
-0.7537326878672206 -0.6473912572637457 0.7209513609152418
-0.031514462732137316 -0.6325929579595013 0.3397291196346244
-0.46827024461036104 0.05387440010011435 -0.43409426427531117
-0.20879178541019883 0.5816275975410583 0.7468748982913689
-0.6412574726235873 -0.7273825503639391 -0.7736167184359146
0.9591934608966346 0.8831826057118355 -0.5386656353977952
0.9398151471643426 -0.584364665753192 0.012952032376261524
-0.005229911560969525 0.8299118054776802 -0.918942280210447
-0.3692983711312372 0.19994939693145497 -0.867203562993442
-0.5268988471879565 -0.06987309180491907 0.7617140537384555
0.5219190433155756 0.6579609391234829 0.5221395450586248
0.415441552099566 0.6993866852928934 0.36295338147337763
0.47136611862720224 -0.39671099449557157 -0.6647185542025167
0.5130499583115768 -0.6683254084626775 0.8389117030399382
0.19328567471224267 -0.34113177425634955 0.8732863133047017
-0.6897394561243104 0.028932675390492824 -0.8168918535675278
0.9308554181691475 0.15075212362325785 0.607333195600108
-0.4361551627045943 0.6035932533370774 0.4056839311781959
0.2873629395853705 0.901125629814064 -0.13301732380951403
-0.1698231328157458 0.3842422575700335 0.6701106122860789
-0.32984795993241134 0.33931410939147844 -0.5819251842717874
0.10339994730576607 0.5383434037362658 -0.8693700976996603
0.4556841308885431 -0.9691350460989934 0.916700057990582
-0.06266039900314224 -0.1818582874372423 0.4408893017354376
0.0465977399321833 0.46169771064652676 -0.8304842105325787
0.12558374132574524 0.11621738569917528 0.8642277834176402
-0.9207888438227363 -0.0943607138871847 0.2621458243200654
0.10149390253650314 -0.851677804365186 0.18645678637129115
-0.5556062295454713 -0.608901641326304 0.7573817694953071
-0.6043157845206271 -0.09141849598705654 0.5005737644784065
0.4146307720491884 0.10691801184259697 0.6140914938527808
-0.0683676515920093 0.24077086747886245 0.6378332814378722
0.35618327202592637 0.2836567334147566 -0.18774255252576788
0.11664691618672429 -0.20783467204732564 0.48858451059429786
-0.23913968777149952 -0.06675769136111054 0.5109141799957033
0.007311596945369869 -0.3239348586360724 0.6536378777388465
-0.23807481173419442 0.689458201348977 0.570480805397424
-0.10542235245817055 0.4257818794596555 -0.9312205994983234
-0.22040319223632565 0.7206673723921477 0.15907871503671878
0.11565165244679565 0.3294777711070951 0.3553432639485117
0.16719650209424874 -0.15874137898014107 -0.633032623626407
-0.41471592972826743 -0.4141556459309399 -0.13851015071953743
0.9981175109596316 -0.2948961162426573 -0.10524143636146288
-0.2567448723470944 0.1628554790497423 0.8957971589516251
0.7781457874370381 -0.24572250859093447 -0.46619771591613435
0.7687972087027988 -0.012333322171682148 0.3710822942363132
-0.8534171543406941 0.7331153937724961 -0.3740696747661487
-0.010946085425061813 -0.603957836481086 -0.15951475454757902
[...]
POINT_DATA 12000
SCALARS solution float 1
LOOKUP_TABLE default
0.9976635951340259
1.0201864953193454
1.74765135909822
0.347474852750823
0.2659283808708522
1.332310541804997
1.3457390379181888
1.3453510491263263
0.9046919065193014
0.7729292601578226
1.2289772457131027
0.8842286651923797
1.4704047206557058
1.2692774236548257
0.5600449708360492
0.8897027104005407
0.6328555388236337
0.8772642820206492
0.9903277655551176
1.051775631842168
0.25046911052862425
0.7609646373084553
1.5847365040677535
0.5934491211170938
1.2292786793062058
1.903602473967616
0.8953036134172895
1.1753535884841724
0.689965726996871
0.35795555706253457
1.4493731643202865
0.3964366846835493
1.8481995935059568
1.5366803783904956
0.593579024258117
0.2472418465583994
0.40016452471361
1.9214769144654624
1.646135676478958
0.957572287551362
1.3524285653012715
0.49975834121927754
0.8772204960568745
0.8898381964374137
1.124683057994408
0.9384408604166562
0.88887551464874
0.5997437458970335
1.4900347477703393
0.829602516546553
0.7627870084032091
1.1242544037912896
0.5318719071931294
1.8563640946772437
1.098421163567994
0.13816399236860577
1.0110693962649677
0.5351997838232935
1.0741609537391328
1.2132323868994752
1.6372172639209148
1.4980075787593337
2.058812844418445
0.6496584157696
1.3347343172735815
1.1932009332696314
1.1523580685695138
0.5274321623068315
1.234254639287686
2.156861264005696
0.8652848274129848
0.5516514054456504
1.4213217745164204
1.2381528690396946
0.1545684427915363
0.8126847025282402
0.9018217297734245
1.3588677770121365
1.427389905816099
1.1219626848005069
0.3105325523277513
0.7937278635926464
1.0798342249843738
0.11774771230618714
0.6956896740648607
0.9655388715155435
0.8798610518327185
1.3807356855065378
1.9091572989354069
0.8016626539912678
0.46426131635635165
0.8163245260806956
1.1453214725140064
0.5961525233357922
1.0147342082180646
0.5932103110547715
1.4511541603835607
0.8407176344762721
1.944960939882141
0.8295033993136992
0.7390864714841897
0.4800876915575828
0.9557252732282189
0.5326319669462628
0.23207612559145
1.2012350706143473
1.7501783857027253
1.1086039744865581
1.9452750705369628
1.941115145571938
0.2893480873654888
1.3663378801446686
1.032868604865247
1.1498121954225105
0.9608724398923092
2.2790922198102304
0.6108293124930579
1.4367389682813962
1.5189921189130866
0.5115031027059048
0.40092086539436966
0.9651101175946172
1.5548804374725893
1.9954032673260378
1.1951137525618298
1.5440266896065522
0.9403677911174932
0.8939006120731904
0.9800990755657688
0.8442099150359887
0.8334054991187867
1.4237960723535443
0.9095934672465128
1.139137962504574
1.264078977820237
0.7235280178299792
0.8979175323350104
0.6404247095123783
0.5719409170060293
1.0454554216918583
1.9810833309441807
0.217566777595059
0.9067502842510241
0.7559264003319563
0.9229001146541168
0.7935161498638065
1.2777062380378743
0.6243707301899719
0.5647632090069519
0.487971739796886
0.250970599787655
0.29607809019896697
0.34244947755892285
0.5232277452830054
0.8768727081677968
1.074291881434565
0.6129164623045942
0.2738316004010279
0.45139010607514896
0.36093983083304837
1.096235982463252
0.8926045764632307
0.8944604083349157
0.7311884060995918
1.391893153545911
0.3570506334662283
0.8519795599841381
0.3624912524272995
0.482431263746423
1.248831328936628
0.6313986728246924
1.160141774730686
0.24039085309109826
0.23842339223988776
1.272116513177293
0.5671185703771252
1.0883015833117249
1.0816842404034681
0.42568050717892586
0.8431543200141283
0.6204333705149802
0.25590484692435944
0.5886442234321451
1.4921034227217476
1.932040685198802
0.8478103790180981
1.4034298519387773
0.9694142234917525
1.594138735608908
1.5777839643621574
0.4188076433573557
1.7294195408411117
1.5994813448185838
2.108235083173593
0.29784619908563825
0.8687317623203441
1.0220548411647759
0.4077821038012401
0.8696177377853197
1.6378605058753295
0.8816563556373099
0.9760290911606582
1.5124501911337611
1.0969409569520163
0.8257051627615345
1.188886615407725
1.1169226309265974
1.4517695030560736
1.1826122791380156
0.5364641591329542
0.21566426687079981
0.9720840509392387
0.33785833843541047
0.44034013481477996
1.9547065910219346
0.7589585567676189
0.525480286029678
1.0504827519102613
0.9642117807419457
1.0775942763042852
1.1389553298021737
0.7701425972287743
1.1534957088223101
1.160004401739941
2.0429185851350735
0.34142329471530736
1.3317843110036043
0.8760418122868638
1.023393957731884
1.189087868888006
0.9264561168251538
0.4078992586506976
0.4183996342476001
0.411083270167864
0.9113391245835026
0.7596750801512148
0.313027456404638
0.16508641807012292
1.7287087479342538
1.2876091377507075
2.0086836094075893
0.4897311269697868
1.8734636262510203
0.26865606142088894
0.597094071817634
1.7817390844918557
0.825064745831511
1.9610240432352832
1.156290538830592
1.6771519588406099
1.155930035309919
0.52889398678937
0.9037544864325805
1.0702707602721322
0.7709508400099861
1.3041928970944232
0.7295929911902717
1.5670429627381028
1.9378715460183984
1.7638620807036816
1.5048985694149353
1.3439629727212852
0.899085501458017
1.8742811007775029
1.0170924064064366
1.627005899533418
0.389614625938233
1.2774107548973208
0.3941472768032547
0.929285421156186
0.6154412599729628
0.24735126211264596
1.154649152680822
0.4976225064424515
0.9216258144846917
0.36396492333413044
0.7064671827630254
1.9574173920891047
1.5801907075180202
1.1808219645530884
1.6747476881634025
0.341971793215426
1.9389500515536995
1.1095867383798126
1.708189189185927
1.1029216094096934
1.3975224105692021
1.5609562540763129
1.695426041427255
1.7597556488534032
1.184186523471967
0.8569497004473338
1.1662423126610915
0.6798163837585793
1.0993887481129614
0.5044274138882879
2.3013904588606904
1.102713687736344
0.7824514562663598
2.2887883368219573
0.8467043777107778
1.0962338710987454
0.5526380786523502
1.2031163899052844
1.1031930840838788
1.486533574518847
1.7803501164169457
2.2005676814100883
0.9970558547532704
0.28740854951651873
1.698051133024775
0.5459973054781375
1.7052611043936492
0.9044197200801848
1.1813683247678124
0.25373858763913876
1.1598950610719456
0.8409045710987553
1.0749928479857855
0.48780263277406916
1.5340148460545726
0.4534446792539126
1.061771136768432
0.7911128068346187
2.372904905977733
1.6738763648600024
1.4557666995222278
0.41649192334054813
0.7375560852191939
1.648775113035351
1.6996744482275947
0.9579978765216299
0.3808665352902466
0.3114051838976915
0.9486161915468523
0.9634502133381564
0.6046577370342422
1.3207840933524126
2.0208657544390256
2.2362165595582133
1.0197775973804033
0.8031065094955425
0.7472668446272565
0.5902068562245352
0.5928159481268821
0.6089225697386093
0.702585239873809
1.1777212757704494
0.7688251739937924
0.2676195941734022
0.5577961624324218
1.0171530851402473
0.9478766668868673
2.6601067729067305
0.8010393116475403
1.2320532021108979
0.2622812984858176
1.2966629620088057
1.0327787284680947
1.9738784901238167
0.5909963035719041
1.4908661248598543
0.8704271959904326
0.6679183345010898
0.74503496088919
1.7413156935397809
0.9590972679871318
1.1903850212861438
1.6472616200237389
0.7716614935817114
0.21864566957652376
2.032801758182666
0.518805859765441
0.36514977282139716
0.8646454085115337
1.3832109990073502
0.9304047733276207
0.6927384673397502
0.5837711478762215
1.0574175916281825
1.1706297208678815
0.5227472362897705
1.7541413534419175
1.5921199960782486
1.1521437730090407
0.7983025361909211
0.8017206895700252
0.8208377333518357
1.6493725814804916
0.7064582853723153
0.3677708638350276
1.7401641020025898
1.0621567859287975
2.0119240443676993
1.2925380987022634
1.9056710132556642
1.7526962022789945
1.171932000345766
0.9253156498614852
1.5810904483376622
0.8130656811578894
1.8622239120496955
0.7333966307834516
2.0455110284380784
0.7729475124976285
1.7039712579323831
0.8254405163493909
0.3659726756911704
1.7002984246350452
1.3757025838786305
1.2408665727285382
0.9873169118455175
1.0518221141237067
1.9879362283077238
0.7277885401280483
1.0269942496897775
0.39157103302550067
0.4480749956847404
0.6999124979867913
1.055176336896143
0.778758509125049
2.2388898794467424
0.5130125832526774
0.8267778049048395
0.3562469983051667
1.464541467482889
0.62051795339227
0.8812888095324867
0.5293182530786993
1.0021412484661012
0.7772513306698425
1.6887907359343632
0.4108151372592686
0.12429875039687219
0.34401082297163843
0.2724053584451268
1.2462472559863047
0.8951129141092659
1.324217575821185
1.2059921412197316
0.6462910192620229
0.9037733399709149
1.221960885599587
0.9088726649034932
0.6256102956132464
0.9415234860146996
1.443289925273126
1.7043931158909502
0.4690350392428794
0.9438271682786277
1.0726655855386724
0.6519653173767942
0.25118925981522666
0.6506867802025031
1.1059642041980233
1.017823925608158
1.339051603707729
1.0188346323950737
0.8300156521628955
0.30181285666349766
0.7252398076000798
0.7470393892155777
1.233273394710587
1.52127732065816
1.4758927443598076
0.3801886250271471
0.46026475191613947
1.2632207583179018
1.1798561826729879
1.9167511205399006
0.4685167952601088
1.3191102716548033
0.7430189274537896
1.6426416477790988
1.3553320754575842
1.2791862227002517
0.7144641628737128
1.3623962437716914
0.3043557020846053
1.0823239966405918
1.1124643609650204
1.298288158403198
1.3486565118261633
0.7799508975770089
0.24558535539146992
1.0311192625792256
0.33290577623263684
0.9131174711524068
0.7808225796764486
1.3476317345860738
1.402321836881359
0.8538441537483996
0.7134345064638746
1.4924495709715246
1.0782850519123504
1.7555970870550919
1.2163856839820586
0.24326834182670148
1.259453322659661
0.20868667776597985
1.7470824099614664
0.79149481078739
0.6082597682307203
1.948175318562824
0.24772891990227663
0.8167474882553056
1.4566598457824695
0.8687733211216037
1.4008184594362825
0.4673176008176069
0.3287465294110936
1.2373438132176493
0.5080542880992263
2.492055213087382
0.5428648820383482
1.4963274153510797
1.062428315976177
1.3005573366638483
1.4152603233877306
0.39725896855211146
0.8207289426917977
0.8768202269081764
0.9315862147216049
0.23162364137603328
0.2267426167462552
0.7248855019808292
0.2009136088493035
1.1166564432112336
0.7761997209642927
0.6288232013105016
1.552683304598846
0.6217106451330995
1.0896926920872814
1.475987743783357
0.45004114487661107
0.20581998069598584
0.5831860017692255
1.1475469334622024
1.0096438701216737
0.5572886511026396
1.190016025702877
1.342006320741679
1.068874181968721
1.5491869651313739
1.1671232350563663
0.6371239681573991
0.720153421970776
1.227379545652356
0.2117699531755847
1.58762163013113
1.4571736780302218
0.9519341576645697
1.3024689957571436
1.216253904905959
1.041920740675209
0.9208640838978047
0.29673820845486043
0.5396969871988838
0.6640412549956832
1.2658224598392713
0.4098851378641385
0.21175870968342678
1.4184303795600854
0.272066787637537
1.9118684320243167
0.31446557472571507
0.8492338277618924
1.8909157857269543
1.4372290846277438
1.373723821390266
1.614096732849546
1.9571021246335603
1.2931810793992533
1.4975184470396268
0.8772110333880405
1.3296900537880179
0.7956999690041184
1.5766118410136585
0.936308941537011
0.8554413494068236
1.2955136070449456
1.37487067263777
1.8681504157892859
1.235083390948741
1.6936047940573151
0.1519415134269349
0.5027169301961442
1.2561761798184927
0.8510376346904733
0.29392055781359216
0.9730888857075363
1.3417307098442315
1.1961670298469538
1.5336458025371664
1.1024751589017634
1.0429836853530468
1.4297219194307866
1.223983306699617
1.2773343888066468
0.5439128941276966
0.7647263254648401
0.683770925526002
0.42130277625682205
2.414361312450811
1.6515490621420064
0.9837692707725189
0.6211136362119741
1.3902116296885152
1.2024057667859647
0.679788659687684
1.3791355772856682
1.0272864159523756
0.2163159445520848
0.3124443743567852
0.8213995140434421
1.6909430591433572
0.5248235143979757
1.1644101566846636
0.9085599537877233
0.8165851049126227
1.322074148341904
1.7588466808481893
0.42112848374177786
1.292389386631564
0.6880300767132652
0.8910662046773554
0.24790739211342225
1.399251010890021
0.3547237747536014
0.9351028627561677
1.6810210767065918
0.4486540877996828
0.7600597269071794
0.9630841405603605
1.5862000097332452
0.7118959109401196
1.2583988377952717
0.2217536566263026
1.586593046223015
0.98891322273644
1.141055213996905
0.38962206866173826
1.527316199424219
0.9155301299279404
1.8833681976830254
0.47820086980838944
0.8550042619391424
1.6284340402282436
1.005860495551491
0.1620461245384994
0.8362569328476515
0.7499867244249667
1.8213551669211918
0.8236208835720439
0.47659450187644675
0.6275026055786842
1.3353638092453801
0.48970860493251095
2.496132730481841
0.4590211827964384
0.7162512576906229
2.2676523584215844
0.3710955038381359
1.0219561022397163
1.4226993399315673
1.8755044923127313
0.7828567732924794
0.9583757140959037
1.1938768189165483
0.3755444342567819
0.6296913575030694
0.9438672095704905
1.2370110384743556
0.3779665647415627
0.38988588589866985
1.608531409238487
1.728645818215445
0.7168696199192531
0.8202927524886332
1.5381768453098406
1.6038561497698056
0.930151379656087
0.2675672062654037
0.9946436588091836
1.328579463377133
1.209150109081505
0.31897335357981316
0.4292004840616769
2.0064780958716364
0.923147056633857
0.6337902192446865
0.6188560847692456
0.6130211983312908
0.32661527522257017
0.3022309232243553
0.5658520521890182
0.9198484282476284
0.7910449505565974
1.6127143598103422
0.5463637733261717
1.740705172970794
1.1375721496449551
0.7756572825724717
1.9309803154172258
0.3198271341011417
1.3957391711352984
1.0354878932782376
1.696570936433216
1.7090014957391109
0.8184390021157494
1.6356340048014766
0.8862730782273258
0.5612423691286167
1.0143195058809125
1.204063020160313
0.9986649238137759
2.1188636267811685
0.7071962180869065
1.169703645114631
1.386049737823833
1.5656161663334909
0.4613071639825431
0.3451873513935503
1.2094994365516725
1.9914371581074146
0.40580060185237227
0.6051916981485994
1.1300464318257664
0.6755159993294415
1.0643040141912312
1.715740281171312
1.2460106874491543
1.4156712067080948
0.8964109699578763
1.310470794527555
1.2798898199896058
1.231461181283346
1.13530834873451
1.0620360551908108
1.20916769538999
1.0175559252776805
1.0352051780605598
0.9427773454553035
1.2538883835132533
0.6487977558938435
1.8874379644779848
1.1724492862374094
0.9420752624742464
1.166113207028447
0.4079727822401173
1.0386942928196823
0.6637823766474228
0.93921864390374
2.0753608397222423
0.6262674537874103
0.6989297457692941
2.4700556145419927
0.5737380033144642
0.6611885040743463
1.887365974538041
0.604931065502847
0.9719913529081183
1.4708793596085459
1.1007590108448064
1.2237437531335533
1.5866688886700333
1.4306107931050709
0.8166652121479657
1.4660826699245944
0.9447512773563373
0.9028255384276346
1.6149389215624537
0.9982040992775841
1.0811142690212359
1.2357288206776804
1.9119716760746377
0.14556614700695647
1.139905198491945
0.9120616428404303
0.8117460738001948
1.1315636249170977
1.4229434628186164
0.9051469533918697
1.3791456182674369
0.4991435945970539
1.3277345888179721
0.6332828301572495
0.5426507389972927
0.44511339652830445
1.3560893404666114
0.6195863752677265
1.5185246087612747
0.55819594645748
0.6123337206656586
1.0245207634295375
0.5567282744585104
1.2251124596411942
1.0395045768677995
0.682832514899457
1.2888618472258624
1.7109269363211816
1.1104032270334374
0.4258299206937018
0.4577954277199815
0.6910256052764661
1.6007769808338166
1.5474870292070249
0.24637940506207295
0.3997659091645683
0.8876817837411183
0.30948514356236567
0.550850950924393
0.3443285501365738
1.6584701615724375
2.331548427737257
0.4765281504664645
0.9275079439856876
0.6223581579979219
0.7751525951140275
1.0447056150922014
1.7554729469479202
1.02892243954133
2.036594468157726
0.6234599017442388
0.5372285150411362
0.39214289998351015
1.814001936765389
1.3207074253943707
0.5904694154647707
2.0113114373953596
1.3595349573112119
0.5870255501769785
0.7582394478617691
0.8964708496416883
0.6487271669892484
1.0335488230875012
1.3871076151984338
0.24857867300565478
0.7071459478835112
0.8493356144966062
0.8421466380196424
1.256212176795999
0.3705619998010784
0.43761411691860086
1.6080523025448068
0.8716395467448007
0.7275168231329044
1.6344722049381395
1.6232820335408975
1.8126355382166717
0.8219856720189054
1.2455276938867799
0.5212598776416856
1.4060273603392062
1.334198067226838
0.3631667593851816
1.2548349253879119
1.8989988469741115
1.2801299061218372
0.4579369872486503
1.9584116971350192
1.1429563951783641
0.35858702969350087
0.811663073044706
2.1292961073654264
0.7326904751231148
0.9890071307384933
1.213569812115863
1.413722700329208
1.9333675942707904
0.6425932608816086
1.4761330714859218
0.8032897946943145
1.3195849984916714
1.3371942346492307
1.0081508763696787
0.8304206623235062
0.4686759154616843
0.9343379303131215
0.9290037989181194
0.2486741839886611
0.5740968603493625
0.6639123214696117
0.7209010847983243
1.686259725013282
0.6716396832670102
0.6985275581528322
1.2885323266947328
0.8166515899432345
1.1802403391408491
0.32990913296312135
0.7786747380734151
1.9840972182995424
2.533081788241246
0.9928766639299853
0.7793329300565986
1.480374143825098
0.696000513680645
0.28641404574586377
0.7053750161850733
0.5442660935226927
0.11171703269853842
0.7311374102198979
1.107016087618397
1.406935809072527
0.5336811178571926
1.3379945438164167
1.1121323353642263
1.9811235600600952
1.992620554441152
1.805865745993571
1.5788446341852844
0.7075025742332396
0.6355260685483355
1.104975436334141
0.746305026547481
0.520143033841546
0.6629166312260675
0.9757736278622967
1.9562444202877614
0.7351456660430636
0.3539640891714707
0.24195232918282678
0.8848999058906258
2.2315871833352108
0.9442055322307743
0.9783973674881876
1.1082522665449077
0.8338391140236417
0.5508345112878298
1.1142873132403694
0.6756719855367985
0.28788987436930746
0.9351597839809258
0.9160028609120746
1.2831627049343732
1.3171065571768363
0.9655271048620231
1.20211153025367
0.7164429686904119
1.0937642772976528
0.8732006619819936
1.1486974680196926
0.9888260522515966
0.5430494203249723
0.7465171179268286
1.5178993049127838
0.7778172860834363
1.3461636794629102
0.7780004878754052
1.1087580449913153
0.36874556480936527
1.704314647406708
0.8474933679655193
1.4354211688508902
1.0812617064462176
0.863912605588769
1.6944509283633518
0.3944580764090032
1.7769996035760598
1.3310882641098938
0.7526692584900964
0.904976463749159
1.2327947739114338
2.1391632137733834
0.5728731488713086
1.6865595843298065
0.3275226017296177
1.8591374735833341
0.4139234412095374
0.6887452552981956
0.3673393195368743
1.1232644077860192
0.9429992615494752
0.9205191675468759
1.6360569884343297
0.8788851114998188
0.8864434468650905
1.0301943366493578
0.9975084133102604
0.699617394975381
1.3251767930942326
0.9006168986029905
0.3766030829335058
1.1223549450991166
0.3301753741646344
0.9712918558600981
0.7676543211575677
1.188310061429402
1.1087942231375594
0.6075643800892021
1.1791009209797156
0.8871821100870801
1.2020078943310994
0.38463289494552916
0.9339016696595451
2.123407487213543
0.60720940701153
0.825221022788154
0.9183031124102542
0.6659597863190705
0.996014604644398
0.7356199736821505
0.6990853352478947
1.0615168336253193
1.4688852588828414
2.5212910180742156
1.3081621030170782
0.3221565432519268
0.21896613119843653
1.1799374055340888
0.9795309117155357
0.751333221185204
0.8739945057002177
1.1795296751134245
1.0372310132815965
1.8628828043921366
0.4565007673210717
1.0782169231869376
1.822950071606531
0.7890748407478577
1.3140650678483183
0.6820959421488387
0.40866291231970464
1.1303865618335882
0.3924100680687535
1.105714419346033
1.066793912317681
0.8124478479953923
1.8731603430029438
0.8918689374348931
1.0891310837842099
0.7723262733612988
0.8556016250800949
1.1454044450145688
1.2266387780899253
1.5330472624829234
0.4756186324780829
0.5654898510683071
0.8904069098820464
0.4309586225302284
1.2329380380341761
1.4098623237925927
0.6763509372127109
1.3643127017477619
1.8976719929891728
1.5303638034953166
1.1350250768642036
0.971118899848571
1.0436049148273316
1.2807718905552503
0.34580104528012817
1.218290370571186
1.429215085593268
0.2979022708227065