# vtk DataFile Version 3.0
WoSt Poisson solution – structured grid
ASCII
DATASET STRUCTURED_POINTS
DIMENSIONS 96 96 1
ORIGIN -1 -1 0
SPACING 0.021052632 0.021052632 1
POINT_DATA 9216
SCALARS solution float 1
LOOKUP_TABLE default
2
1.9583379
1.9175624
1.8776731
1.8386704
1.800554
1.763324
1.7269806
1.6915236
1.6569529
1.6232686
1.5904709
1.5585595
1.5275345
1.4973961
1.4681441
1.4397783
1.4122992
1.3857064
1.36
1.33518
1.3112465
1.2881994
1.2660388
1.2447644
1.2243767
1.2048753
1.1862603
1.1685318
1.1516898
1.1357341
1.1206648
1.106482
1.0931855
1.0807756
1.069252
1.058615
1.0488642
1.04
1.0320221
1.0249307
1.0187258
1.0134072
1.008975
1.0054294
1.0027701
1.0009972
1.0001107
1.0001109
1.0009972
1.0027701
1.0054294
1.008975
1.0134072
1.0187258
1.0249307
1.0320222
1.04
1.0488642
1.058615
1.0692521
1.0807756
1.0931855
1.106482
1.1206648
1.1357341
1.1516899
1.1685319
1.1862605
1.2048753
1.2243768
1.2447646
1.2660388
1.2881995
1.3112466
1.3351802
1.36
1.3857065
1.4122993
1.4397784
1.4681441
1.4973962
1.5275347
1.5585597
1.590471
1.6232688
1.656953
1.6915236
1.7269808
1.7633243
1.800554
1.8386706
1.8776734
1.9175625
1.958338
2
1.9583379
1.9156611
1.8615367
1.8382018
1.7889913
1.8557845
1.8312504
1.766356
1.7368351
1.6711082
1.6722534
1.6641552
1.6690181
1.6083093
1.5761372
1.6123965
1.6239405
1.4907357
1.5705341
1.5463982
1.56242
1.49763
1.520274
1.4910814
1.4764884
1.465758
1.4414908
1.4192135
1.5173435
1.6124141
1.5584775
1.510896
1.5341461
1.3732412
1.4321967
1.4197375
1.4024291
1.4718921
1.533326
1.4893227
1.4452512
1.4053921
1.4774213
1.4739785
1.4344327
1.3229649
1.391246
1.3583103
1.3576376
1.4686327
1.4688176
1.5432867
1.5141449
1.5184858
1.5586412
1.5294447
1.5729525
1.5070977
1.477379
1.4157432
1.3848312
1.508473
1.4469068
1.4273916
1.4411693
1.4531753
1.400093
1.3404993
1.3986098
1.4156384
1.4206253
1.4022216
1.4299458
1.4158726
1.4695635
1.4565632
1.4841473
1.5085036
1.495067
1.5304083
1.588606
1.6110592
1.6113003
1.6396528
1.6715801
1.7088989
1.7065778
1.7743579
1.8015599
1.774731
1.846742
1.8683028
1.8790004
1.9087964
1.9199282
1.9583379
1.9175624
1.8606869
1.8555524
1.8284222
1.9134489
1.8629941
1.9291253
1.8048743
1.8282926
1.7290183
1.8392653
1.7963421
1.7945372
1.7639016
1.7093343
1.7174128
1.7355775
1.6727349
1.7237092
1.8347143
1.6115803
1.6612241
1.6351045
1.976195
1.819072
1.9091551
1.9647102
1.838061
1.9231009
2.1336443
2.0911682
2.1467681
2.2169447
2.0231316
2.0065949
2.0722327
2.3056481
2.1857071
2.0081739
2.2116935
2.2118237
2.1708643
2.0961556
1.7263743
1.939698
2.0106268
2.0435991
2.1170995
2.0101864
2.2386777
2.1308715
2.1629343
2.097636
1.990225
1.9601723
2.1500144
2.0447512
2.3095732
2.0651431
2.0676072
2.0772412
1.9413706
1.9908173
2.145678
2.1918995
1.9601132
2.0784786
1.9756534
1.6996123
1.7193764
1.8399665
1.8844023
1.8986832
1.8562278
1.8083943
1.6874118
1.7222767
1.7749804
1.6188148
1.6873738
1.8538722
1.7843084
1.8708506
1.8437124
1.7646952
1.7535708
1.7855898
1.7336749
1.7569022
1.8069978
1.9043263
1.8342218
1.8626969
1.879742
1.8714045
1.9175624
1.8776731
1.907999
1.8923341
1.819391
1.9467877
1.8529127
1.9481088
1.9291899
1.9298365
1.9311571
1.847437
1.8204824
1.7117083
1.6220001
1.6736763
1.7004116
1.7914447
1.87857
1.8813268
1.9849976
1.905441
1.8573979
2.0167193
2.0688155
2.1045399
2.1831944
2.2712147
2.3763063
2.5527184
2.3514569
2.5200772
2.8049068
2.6874685
2.8949914
2.6659811
2.6885343
2.866497
2.6365752
2.5830181
2.5070498
2.8435855
2.7571845
2.9322119
2.7494073
2.5989447
2.8906748
2.3589048
2.4366496
2.3282785
2.5142107
2.4524381
2.5652406
2.8184853
2.8867574
2.5749025
2.8791783
2.9549186
2.7079232
2.644702
2.6551549
2.5148485
2.6952343
2.7794435
2.6467645
2.4417765
2.3337791
2.2560167
2.1870542
2.1128263
2.0382714
1.9863743
1.8826995
2.0009887
2.0208461
1.9647573
1.9229304
1.8233507
1.7877735
1.7944646
1.7419113
1.7819697
1.7221078
1.902563
1.8482291
1.8081257
1.8189681
1.8400378
1.8836163
1.8730459
1.8202275
1.8687131
1.8397722
1.9118084
1.8091906
1.8337195
1.8776731
1.8386704
1.8735322
1.8443944
1.9136436
1.87424
2.0227773
1.8056309
1.843063
1.8946282
1.7774384
1.7761263
1.9709753
2.1112926
2.1072712
2.1756823
2.3000958
2.1894484
2.0673864
2.0750782
2.2637565
2.123652
2.4795663
2.4189618
2.4578123
2.5274425
2.7769234
2.3991821
2.8671911
3.038883
2.8874061
2.8865914
3.0225525
3.0141211
2.8734629
3.243077
3.458977
3.205971
3.2456007
3.0132611
3.306138
3.1470206
3.4655254
3.2136896
2.9254296
2.9443786
3.1433256
2.8766499
3.0592403
3.0180907
3.1817834
3.0617759
2.9944837
2.7396431
3.01565
3.0534012
3.2875273
2.8835375
3.2191041
3.399086
3.123718
3.1680882
3.0903289
3.0769622
2.7633858
2.698622
2.7276692
2.7637889
2.603385
2.394964
2.196697
2.6932504
2.5917757
2.4568744
2.1189115
2.3165185
2.3674889
2.316241
2.4016078
2.3912623
2.2981093
2.0329514
2.1035364
2.0344646
1.9090275
1.8504649
1.9333652
1.9272665
1.7872825
1.8158848
1.9250581
1.7634761
1.7991309
1.8158917
1.8448857
1.8397193
1.8386704
1.800554
1.7938871
1.827413
1.8488059
1.9862702
1.9261706
1.9772217
2.0343931
1.7705027
1.8929305
1.9441872
2.0725505
1.9788595
2.0762246
2.0824373
2.0323987
1.9632638
2.0900886
2.186295
2.0974348
2.305896
2.4294295
2.6426134
2.4957666
2.7707303
2.7452722
3.1564023
3.1058264
3.027384
2.8404529
2.9299772
3.3221424
3.511806
3.3098156
3.2615442
3.4455607
3.2845182
3.5444415
3.7449465
3.4413862
3.4733083
3.6721961
3.6062217
3.4738526
3.4616218
3.3111548
3.4192286
3.5708001
3.2764058
3.5351603
3.7392879
3.7560835
3.3878684
3.350867
3.3713825
3.6257813
3.4237757
3.5009534
3.2896249
3.1537814
3.0205534
3.452837
3.2841721
3.1556094
3.1280167
3.3415513
3.3121216
2.8615003
2.8618441
2.8860192
2.7347314
2.7376192
2.670171
2.6721985
2.653409
2.5456204
2.5954723
2.3497896
2.0480444
2.2884402
2.103446
1.9168589
2.0181372
1.952924
1.8309599
1.9326164
2.0815072
1.8899032
2.0023911
1.8309916
1.8978897
1.9007089
1.8081627
1.7832271
1.7996501
1.800554
1.763324
1.7651182
1.8313183
1.9015577
1.9474926
1.9318762
1.9324354
1.91281
2.0024927
1.8465222
1.9930302
1.9537419
2.1011062
2.1229541
2.1470935
2.2008522
2.3019392
2.3663661
2.6492465
2.7537842
2.660167
2.718195
2.8249674
2.7139344
2.8491356
2.7560825
3.170114
3.1377029
3.0155804
3.394443
3.6739883
3.8469021
3.5592797
3.4445932
3.7075653
3.9963622
4.3314018
4.0959558
3.9491568
3.8865373
3.6278455
4.1260037
3.5996377
3.9373991
3.6837394
4.1439581
3.8483851
3.8275223
3.653496
3.8449001
3.9023833
4.0566211
4.2311983
4.0441856
3.9443955
3.8064792
3.9386685
4.5102234
4.2751541
3.6340635
4.2035289
3.8722534
3.6760194
3.8004954
3.5224411
3.536742
3.3927941
3.1996078
3.154448
3.5161769
3.1022031
2.8931863
2.8979058
3.0671079
2.5822465
2.6174154
2.1851206
2.4083161
2.217171
2.4929686
2.2878232
2.3488255
2.1210053
2.1444004
2.0327325
2.1028211
2.009999
1.9506807
1.9416145
1.8537309
1.8930365
1.8638616
1.83461
1.7914765
1.7886866
1.763324
1.7269806
1.7696848
1.8811945
1.8133087
1.8740577
1.8909192
1.9014027
1.9668534
1.9973737
2.2460351
2.0992081
2.0634656
2.1874683
2.2596545
2.138545
2.410841
2.5064631
2.6913185
2.4707396
2.5129697
3.0601768
2.7923865
2.8852942
3.2651563
3.3512709
3.2334826
3.6700165
3.4151397
3.8293273
3.9483879
4.1052947
4.3579574
4.1200099
4.5400763
4.6602426
4.6548061
4.5328522
4.9515438
4.5329256
4.7338018
4.1388493
4.4006286
4.1635137
4.4146533
4.3358755
4.3327942
4.4078007
4.2839804
4.0336699
4.4071169
4.3208637
4.6027021
4.4428563
4.5971012
4.4069934
4.2455125
4.7013817
4.4952106
4.5423312
5.0590534
4.4305115
4.2959862
4.1365657
4.1311054
4.1035519
3.9310541
3.7175543
3.697176
3.2597723
3.1903794
3.2579784
2.9955728
2.8885338
2.6717739
2.9868155
2.6088233
2.851244
2.3286099
2.5513132
2.202858
2.55562
2.3235688
2.1285999
2.1997292
2.0835497
1.9584206
1.9302309
1.919275
1.7492632
1.8383586
1.9045066
1.888474
1.7343763
1.8886243
1.720751
1.7269806
1.6915236
1.7285547
1.8060751
1.8251389
1.905772
1.8561559
2.0064116
2.2047043
1.9443431
1.9712623
2.0869529
2.0523355
2.2490802
2.1870251
2.2397552
2.4043655
2.4830313
2.6035852
2.6828408
3.0718949
3.2576363
3.2908328
3.2066448
3.5011623
3.8424029
3.9740746
3.8031385
4.178041
4.4889197
4.0931549
4.6362424
4.5918474
4.9544363
5.4542575
5.2655516
5.4401388
5.3064322
5.4170575
5.346209
4.9635258
5.2761602
5.2743263
5.4132972
4.99476
5.2017946
4.8121519
5.1221991
5.1549387
4.9565701
4.939827
5.0298324
4.9569678
5.3124213
4.9763842
4.8003545
5.6928954
5.5236921
5.6754603
5.0517983
5.0916882
5.3801188
4.823772
4.939456
4.8871069
5.2517853
4.5065722
4.0806561
4.1520991
3.7419374
3.8330555
3.3986721
2.9385672
3.1214812
3.0022695
2.6450031
2.4896345
2.7183182
2.8577621
2.617831
2.2659419
2.4011455
2.2457507
2.0648177
2.162647
2.1708162
2.0373566
1.9681165
1.9829305
2.2282794
1.8745239
1.8833492
1.8140624
1.9391608
1.7651105
1.6492856
1.6915236
1.6569529
1.6936532
1.7459025
1.8586427
1.9013443
1.9209615
2.2401125
2.0965858
2.2377481
2.1498458
2.0855603
2.0187376
2.1159704
2.477865
2.4131362
2.678261
2.6111722
2.774549
2.9091971
2.8714256
3.1596403
3.7370183
3.7046626
3.5100708
3.7914858
3.8523908
4.329567
4.2470689
4.4120016
4.7489567
5.1435256
5.4537225
5.4534135
5.5680952
5.770864
5.9645801
6.0259829
6.4741306
6.2376928
6.2115784
6.1395564
5.898324
5.5200033
5.8337135
5.3541894
5.4561105
5.6078644
5.2255545
5.3376427
4.9839091
5.1053038
5.3497477
5.5124049
5.5633245
5.3532252
6.1098528
6.0039787
5.9741554
6.0759921
6.4006877
5.9736571
5.4199529
5.1821775
5.1683831
5.4330392
5.2387877
4.7942944
4.5802879
3.8365552
3.7041125
3.8171561
3.4999046
3.7577863
3.2600832
3.1185849
3.0893764
2.9744797
2.9619131
2.3976867
2.4774802
2.2200675
2.3843856
2.3673427
2.4192851
2.0230703
1.9080842
2.023344
2.1185753
2.0153754
1.9201874
1.7610807
1.8469473
1.6918744
1.7006392
1.6317
1.6569529
1.6232686
1.6569562
1.7328751
1.8745441
1.9239484
1.8691796
1.9873353
2.2384124
2.3544779
2.205488
2.4368939
2.3087647
2.521054
3.0283146
2.5834916
2.9230337
2.9549942
3.0542748
2.8927674
3.409982
3.2958698
3.7369764
3.5795341
3.7107961
4.5089679
4.242979
4.7690096
5.2124696
5.2020741
5.1326618
5.4185839
5.7521744
6.1070924
6.0082717
6.7043109
6.9682093
7.2270784
6.9099736
6.7105756
6.6479983
6.5101414
6.089458
6.5264683
6.1420527
6.0226254
6.420207
5.6599216
5.9434915
5.9174662
5.8152471
5.7808146
5.6733627
5.5603251
6.5221233
6.6237388
6.5892639
6.858901
6.7557178
6.5936956
7.0119653
6.7136102
7.0014281
6.4058919
6.3947072
5.5841885
5.4909425
5.058413
5.3345098
4.6470413
4.6089373
4.2305036
3.8270333
3.7147951
3.6153309
3.4040356
3.1566751
2.8093214
2.9818661
2.73401
2.1199346
2.2789557
2.2456865
2.4924269
2.4394329
2.3405027
2.0955048
2.2058041
2.2975883
2.2775769
1.8695171
1.8946016
1.8554296
1.6604465
1.674592
1.6359677
1.6232686
1.5904709
1.6273248
1.7004517
2.0337026
1.8126771
2.0790899
2.17681
2.319437
2.3100877
2.19701
2.4872267
2.7524912
2.8131394
2.7284324
2.8225849
2.8861904
3.2264578
3.0216377
3.1961329
3.4345961
3.636574
3.933022
4.185349
4.3104973
4.1551313
4.7030644
4.6863265
5.2529163
5.6590748
5.5903673
6.1997757
6.3642726
6.8750691
6.9396801
7.4966025
7.5627499
7.7062001
7.9780049
7.8872972
7.6404662
7.4837098
6.9962411
6.7194653
6.4846716
6.6381512
6.6482081
6.4864311
6.1435165
6.1524777
6.6159921
6.8232164
6.6677022
6.6495848
6.9850459
7.2859302
7.6668892
7.6985521
7.5853877
7.9273677
7.5036035
7.6982484
7.1724529
7.2411389
6.4748864
6.1505146
5.7949061
5.5368967
5.6223254
5.2551246
4.7303271
4.4596009
4.0895128
4.2754121
3.5876777
3.2367549
3.5890892
3.4518538
3.175349
2.9637713
2.7036772
2.5033865
2.2598984
2.7764912
2.8864942
2.275394
2.2985623
2.2414269
2.2556009
2.0365562
1.9599208
2.0248892
1.8551663
1.6773927
1.706365
1.5694287
1.5904709
1.5585595
1.6291095
1.7429662
1.9236281
1.9440515
2.1811159
2.1198475
2.3399246
2.1747046
2.3076668
2.2710631
2.6955955
2.6947119
2.9802523
2.8931437
2.852952
2.8375242
2.96768
3.2406881
3.4764354
3.678026
4.2489557
3.7914007
4.4495821
4.5766764
4.6738129
5.4492912
5.7106652
5.9754791
6.6183925
6.9615488
7.5331273
7.6436853
7.8954926
8.5400906
8.5651159
9.0550442
9.1646442
8.9954882
8.7089119
8.13097
7.99403
7.7206593
7.509522
7.0234456
7.2005029
6.7773147
6.8850393
6.4477348
6.7013841
7.3387203
7.3827643
7.7678909
7.3399277
7.9795084
8.1138191
8.5650501
8.955183
9.0840483
9.2511988
8.8814831
8.5201702
7.6951404
7.2493982
7.3818722
6.361701
6.0596647
5.6455903
5.6509013
5.2272496
4.874052
4.767961
4.2593031
4.3597097
4.3182626
3.9174173
3.3322923
3.413198
3.114995
2.9215167
2.4147034
2.6817772
2.5415592
2.5469391
2.2718213
2.4543903
2.5410864
2.2276635
1.8758769
2.0484164
1.9749434
1.8010633
1.6641446
1.6714038
1.570345
1.5585595
1.5275345
1.6012394
1.7824785
1.9122673
2.0175288
2.3078775
2.3080292
2.2638776
2.1709051
2.4814484
2.6805074
2.3610933
2.8731742
2.9189181
3.0655701
3.3226304
3.638346
3.3758512
3.8851726
3.8263347
4.2129092
3.9993815
3.9315438
4.7460799
4.9189425
4.9277492
5.6725678
5.9782743
5.9901438
7.1861901
7.3442483
7.7358875
8.4037991
9.0645208
9.5574694
10.28023
10.427852
10.53548
10.110557
9.9021425
9.4900026
8.9408054
8.5860367
7.9642467
7.7487788
7.8142114
7.6764951
7.1431189
7.1143689
7.4328299
7.4784169
7.6519256
7.9351115
8.1711426
8.7237892
9.1494837
9.9364576
10.256427
10.500705
10.355874
10.239391
9.601965
9.3241854
8.2152319
7.8204365
7.2243028
7.0686698
6.2658606
6.0597482
5.1266861
5.1928115
5.0037766
4.7363272
4.1657548
4.0859542
3.6787517
3.4203749
3.5439703
3.2176943
2.9122267
3.1790309
2.9106393
2.8841958
2.7991638
2.3686492
2.317941
2.3191972
2.4014957
2.0381322
2.2452819
2.0185497
1.8096521
1.6710236
1.6347557
1.5376954
1.5275345
1.4973961
1.5732744
1.6530687
1.8563167
1.9948882
2.1426349
2.2689216
2.5397351
2.4139094
2.4596636
2.743407
2.8889585
2.8607998
2.9987485
2.9772811
3.3162012
3.3732097
3.3548481
3.7075322
3.9704211
4.3133607
4.4288373
4.8805981
5.1871147
5.9202666
5.7299466
6.0238647
6.195343
6.6419482
7.5339026
8.0211535
8.4299593
9.5442753
10.312988
nan
nan
nan
nan
nan
nan
10.405728
9.88202
9.2155581
8.5896854
8.311841
8.1218948
7.4848275
7.8474283
7.4202042
7.7072549
7.5651779
8.3472042
8.6329899
8.7662268
9.8522835
10.406178
nan
nan
nan
nan
nan
nan
10.176459
9.2913895
8.817256
7.9023838
7.4843373
6.6586418
6.2415447
6.0102768
5.4633422
5.1846709
4.8849335
4.5565133
4.3377237
4.1237864
3.8328145
3.3019192
3.5723376
3.388555
3.0495865
3.0894601
2.9708064
2.6089702
2.3753188
2.33479
2.1935074
2.2822049
2.1421256
2.3335876
1.9207356
1.7770401
1.6610979
1.5781559
1.5132389
1.4973961
1.4681441
1.5446868
1.653815
1.814078
2.0831976
2.0688591
2.5258124
2.4590323
2.4114501
2.6495373
2.7612841
3.184238
3.1863949
3.0315137
3.0170662
3.1304281
3.6570559
3.579493
3.759537
3.801919
4.1126971
5.0157657
4.7741508
5.3188586
5.88063
6.0578151
6.4684763
6.7928619
7.3521085
8.1991615
8.8355103
9.7596016
10.420396
nan
nan
nan
nan
nan
nan
nan
nan
nan
9.6283197
9.0082264
8.5669212
8.5153503
8.2113476
8.4118309
8.3573866
8.0137148
8.1717014
8.5725965
8.9986439
9.8248186
nan
nan
nan
nan
nan
nan
nan
nan
nan
10.378316
9.7244625
8.8723364
7.9963722
6.9425163
6.3340592
5.8606319
5.3607249
5.7732778
5.3426342
4.7567658
4.4918642
4.0616641
4.2004981
3.8977332
3.497098
3.3117995
2.9668772
3.0949986
2.5948431
2.8100681
2.6251621
2.3494802
2.3052824
2.0816424
2.4225724
2.2087498
1.9007624
1.8113868
1.678156
1.5891635
1.5832652
1.4681441
1.4397783
1.5475848
1.6985154
1.9356502
1.9879187
1.9932998
2.3590171
2.35694
2.4051785
2.4931979
2.7603407
2.8630645
3.1210644
3.3806102
3.2504506
3.4183648
3.5678139
3.9309578
4.1183352
4.2065158
4.8815227
4.7899289
4.9241185
5.5324311
5.5791607
6.3138127
7.1116929
7.3202314
7.8829818
8.4288845
9.1953468
10.237601
nan
nan
nan
nan
nan
nan
nan
nan
nan
nan
10.205802
9.6240606
8.7849131
8.5478907
8.5673037
8.3795557
8.3372164
8.5667048
8.4187536
9.0749273
9.4177446
10.136131
nan
nan
nan
nan
nan
nan
nan
nan
nan
nan
10.056197
9.3846493
8.1748266
6.9930458
7.1641126
6.3666453
5.7537274
5.3096309
5.1860008
5.0023341
4.2879295
4.6643085
4.3842053
3.4285429
3.7407119
3.1294415
3.2370899
3.0851362
3.0611138
2.6362374
2.4061625
2.6773269
2.2885549
2.1017647
2.2617364
2.2571118
2.1024559
1.7714611
1.6863676
1.5536945
1.421512
1.4397783
1.4122992
1.5189763
1.6139475
1.9496825
2.0039971
2.0741901
2.2986522
2.4512072
2.5067797
2.4371626
2.7392588
2.954077
2.9686692
3.4265261
3.4778743
3.9026492
3.9494522
4.0057602
4.1731014
4.7821488
4.9791093
5.5074553
5.4390721
5.5457282
5.4989877
6.3762465
6.970902
7.53088
8.0609436
8.6897354
9.7588854
nan
nan
nan
nan
nan
nan
nan
nan
nan
nan
nan
10.423933
9.9112539
9.1303711
9.0702343
8.6332464
8.7635651
8.8660345
8.5720425
9.0936995
9.2961006
9.5261803
10.38794
nan
nan
nan
nan
nan
nan
nan
nan
nan
nan
nan
9.4613066
8.692378
7.7879405
6.9781637
6.6506848
6.4891601
5.8264375
5.3695364
4.9472203
4.3614445
4.6455021
4.1698804
4.3280001
4.016674
3.6669383
3.3722885
2.8148293
3.0287914
2.5945914
2.755156
2.8047452
2.458832
2.3112009
2.3498135
2.4547682
2.0494771
1.7742522
1.5937024
1.6044323
1.4591731
1.4122992
1.3857064
1.5269169
1.7920438
2.0027881
1.954311
1.9984707
2.371964
2.5420582
2.6877992
2.7516968
2.7147844
3.0070288
3.1735303
3.4270921
3.2578084
3.5267808
3.8918443
4.1573982
4.6390629
4.6525369
4.6920586
5.2933364
5.5037832
5.6654963
6.2205648
6.3314195
7.4810991
7.6875734
8.4819536
9.2876406
10.311619
nan
nan
nan
nan
nan
nan
nan
nan
nan
nan
nan
nan
10.143188
9.4317541
9.3456707
9.0143147
8.9784355
8.8930063
9.2866821
9.4016466
9.4205637
9.8972607
nan
nan
nan
nan
nan
nan
nan
nan
nan
nan
nan
nan
10.089943
8.9169998
8.048419
7.610816
7.1295772
6.456531
6.0722022
5.7898264
4.9359593
4.8111086
4.6891727
4.4897041
4.1155138
4.1448174
3.613739
3.2977829
3.4120739
3.1536658
2.7492101
2.7983928
2.4945705
2.3664792
2.4951792
2.465976
2.1114168
2.0896893
1.7629672
1.588266
1.5690004
1.4716192
1.3857064
1.36
1.5032885
1.697557
1.9707977
1.7548896
1.9930104
2.3527322
2.5470753
2.4722872
2.8616748
3.1168082
2.9718375
3.1123312
3.4313586
3.4038503
3.6555951
3.9453547
4.4193211
4.5070877
5.0221224
4.8365436
5.6393623
5.8896332
5.8806458
6.5256815
6.6719551
7.4669557
7.892118
8.7833118
9.4607029
10.494609
nan
nan
nan
nan
nan
nan
nan
nan
nan
nan
nan
nan
10.057364
9.8817272
9.538722
9.121521
8.9585772
9.3270464
9.1563349
9.6476259
9.6764193
10.134523
nan
nan
nan
nan
nan
nan
nan
nan
nan
nan
nan
nan
10.458262
9.4849739
8.7404518
7.6995001
6.9867477
6.6889086
6.3485665
5.6875634
5.5240207
4.6460633
4.4498005
3.9012814
4.2892675
3.9304917
4.0335245
2.9838567
3.6116564
2.9130743
2.903492
2.8901427
2.6820917
2.358036
2.7086027
2.3297603
2.1254933
1.9708641
1.6068981
1.5956379
1.4766932
1.4454628
1.36
1.33518
1.5089997
1.7324864
1.9821984
1.8962487
2.0738451
2.2735379
2.4586344
2.5633738
2.6766617
3.0688746
3.1727469
2.8129666
3.4463832
3.6548276
3.4127252
4.3472414
4.3240666
4.4996686
4.7385459
5.2519822
5.4835582
6.2649727
6.2736497
6.3680487
6.7749062
7.5805631
8.0046167
8.8341303
9.8571539
nan
nan
nan
nan
nan
nan
nan
nan
nan
nan
nan
nan
nan
10.216902
10.031061
9.4917927
9.2592869
9.3269014
9.3357487
9.4793558
9.4771013
9.7339087
10.11408
nan
nan
nan
nan
nan
nan
nan
nan
nan
nan
nan
nan
nan
9.6686726
8.7875719
8.0408154
7.4406576
6.8162799
6.3670483
5.3808084
5.4767842
5.4069548
4.9788904
4.472888
4.3886938
4.2984495
3.8742542
3.5766957
3.7324033
3.286031
3.0401921
2.7163148
2.7397869
2.7350986
2.718091
2.3761709
2.2676976
1.9080465
1.636863
1.6095468
1.4958205
1.4204978
1.33518
1.3112465
1.489696
1.7508718
1.8401902
1.9069986
1.9609015
2.452177
2.7347033
2.6138926
2.6960006
3.2513971
3.0948601
3.3666494
3.906987
3.7547376
3.5485368
4.1917486
4.4894848
4.572289
4.692338
5.2028627
5.4057512
5.949007
6.0820813
6.7644401
7.1869011
7.8070025
8.4222803
9.1241512
9.9344635
nan
nan
nan
nan
nan
nan
nan
nan
nan
nan
nan
nan
nan
10.11411
9.9250488
9.5865593
9.395256
9.4873934
9.6049271
9.6930485
9.6628952
9.9602804
10.137726
nan
nan
nan
nan
nan
nan
nan
nan
nan
nan
nan
nan
nan
9.9175606
8.8555555
8.3308668
7.4542208
6.9348359
6.634573
5.7243071
5.5031004
5.0535483
5.5256009
4.6549568
4.9839554
4.5355086
3.7640958
3.8027444
3.4445875
3.5545385
3.2546029
3.0129848
2.8120472
2.7239323
2.6700392
2.4279542
2.3044853
2.2371333
1.5659192
1.6604099
1.4741988
1.3957531
1.3112465
1.2881994
1.4695888
1.6988027
1.9778402
1.99281
1.9373198
2.5527163
2.6852107
2.7193294
2.8034103
3.1182668
3.1388714
3.6086409
3.6205671
3.6184676
4.2345071
4.1623588
4.1448178
4.7177691
5.2915263
5.1964636
5.6575937
6.3321586
6.2082095
6.9197311
6.9848342
7.9517484
8.3385105
8.8581991
9.9075308
nan
nan
nan
nan
nan
nan
nan
nan
nan
nan
nan
nan
nan
10.100174
9.8794031
9.6773157
9.7893181
9.7294865
9.662715
9.8065462
9.7703762
9.9046526
10.186003
nan
nan
nan
nan
nan
nan
nan
nan
nan
nan
nan
nan
nan
9.7840118
8.999217
8.4383392
7.7368741
6.9711576
6.336132
6.153749
5.5774293
5.4105015
5.0478334
4.7905493
4.5615969
4.0035377
3.9063022
4.1377206
3.2071424
3.7015245
3.2436697
3.1567137
2.7231832
2.8019338
2.5823648
2.2911088
2.2869329
2.0618727
1.7585123
1.7194703
1.4124526
1.3722453
1.2881994
1.2660388
1.4822515
1.7513268
2.038285
1.9623547
2.0624375
2.5434086
2.8402557
2.9111974
2.867326
2.8952084
3.0034091
3.0602586
3.5442274
3.689821
3.9224877
4.8527761
4.6323099
4.7867665
4.8904686
5.3777165
5.8001752
6.4869804
6.7123942
6.7391582
7.4736376
8.2437696
8.6256771
9.4429197
10.182569
nan
nan
nan
nan
nan
nan
nan
nan
nan
nan
nan
nan
nan
10.150709
9.9717646
9.6997223
9.7919855
9.8711605
9.6781683
9.6905308
9.8456364
10.000761
10.196407
nan
nan
nan
nan
nan
nan
nan
nan
nan
nan
nan
nan
nan
10.032326
9.1176844
8.3048868
7.9215569
7.9724693
6.7265391
6.1012921
6.0792432
5.3641253
4.9159088
4.8584018
4.3949609
4.4024472
4.0787911
3.9887614
3.6174505
3.3380945
3.3378272
3.1141827
2.8500438
2.6169453
2.9409842
2.4347391
2.2442231
2.1064615
1.7059748
1.7106545
1.3550174
1.3496208
1.2660388
1.2447644
1.495774
1.7008317
1.8614922
1.8174747
2.2211137
2.4710534
2.9386082
2.7065856
3.0367546
3.0521109
3.2124233
3.2220194
3.4661205
3.6483796
3.8141952
4.7154102
4.526228
5.0147886
5.3654795
5.8973031
5.844511
6.0790591
7.0123935
7.0135579
7.3371878
7.82129
8.7106228
9.3504467
10.129723
nan
nan
nan
nan
nan
nan
nan
nan
nan
nan
nan
nan
nan
10.121743
9.9747152
9.9380789
9.9274731
9.7779369
9.8458195
9.821785
9.9411821
10.025146
10.211536
nan
nan
nan
nan
nan
nan
nan
nan
nan
nan
nan
nan
nan
10.116376
9.251318
8.4865751
8.1564503
7.1464343
6.9410419
5.9196115
6.1716666
5.4720793
5.5982752
5.0877013
4.6878462
4.5292649
4.266552
3.814404
3.4069633
3.3214879
3.5433002
3.2352064
2.8979826
2.7041805
2.5556216
2.5100491
2.6147282
2.1297452
1.7600648
1.5462922
1.371811
1.3298315
1.2447644
1.2243767
1.4772822
1.680414
1.8324089
1.9119263
2.1372075
2.4039671
2.8086672
3.0429592
2.7822466
2.7042255
3.1389887
3.4061
3.611589
3.7804582
4.1100426
4.5083222
4.8817463
4.8205519
4.9394722
6.0040884
6.0383625
6.139554
6.7044706
7.2352452
7.5505877
8.2396002
8.7520304
9.5181036
10.219887
nan
nan
nan
nan
nan
nan
nan
nan
nan
nan
nan
nan
nan
10.149396
9.8907671
10.066088
9.8013964
10.128217
9.9440365
9.8446102
9.9212351
10.003472
10.232169
nan
nan
nan
nan
nan
nan
nan
nan
nan
nan
nan
nan
nan
10.182134
9.1970615
8.7664671
7.7917743
7.4749832
6.7249627
6.6880765
5.9255919
5.4959593
5.7474856
5.0427799
4.6415095
4.4297209
4.4032373
3.9472053
3.796967
3.5199373
3.2305264
3.1680343
3.085644
2.7322106
2.8742073
2.5459168
2.4216015
2.1652224
1.7437614
1.5583721
1.3588614
1.3071165
1.2243767
1.2048753
1.4911164
1.7297677
1.8928889
2.1050844
2.3354509
2.3907647
2.70767
3.0856385
2.8833241
2.8677506
3.2216816
3.4238305
3.5875373
3.8239884
4.0072517
4.4780321
4.5232782
4.7865252
5.2806077
5.6345201
6.3805013
6.8706055
6.9354424
7.2517619
7.7116985
8.2217579
8.6062965
9.2856274
10.272058
nan
nan
nan
nan
nan
nan
nan
nan
nan
nan
nan
nan
nan
10.210889
10.094403
10.04409
10.031957
9.8919716
9.932024
10.044349
10.119154
10.051931
10.210757
nan
nan
nan
nan
nan
nan
nan
nan
nan
nan
nan
nan
nan
10.119041
9.0382643
8.8545809
7.9848905
7.7869463
7.0032492
6.8000288
6.0932765
5.6482949
5.5229306
4.9891844
4.8485327
4.3753228
4.2035151
4.12397
4.0475221
3.057003
3.1596408
3.1470141
3.0365887
2.8797722
2.5852654
2.657618
2.2772813
2.1867599
1.6833451
1.668497
1.4398924
1.2876647
1.2048753
1.1862603
1.4797053
1.7115785
1.7240738
1.9912963
2.2208676
2.4045675
2.6068366
3.0274065
2.9299445
2.8950107
3.084552
3.4776335
3.4102077
3.8306646
4.4777231
4.3529363
4.8035703
4.9989495
5.2509289
5.777668
6.4918556
6.4324021
6.9898148
7.3865027
7.8747168
8.4221592
8.8910561
9.5314064
10.286869
nan
nan
nan
nan
nan
nan
nan
nan
nan
nan
nan
nan
nan
10.193069
10.108562
10.06484
10.065492
9.9825296
9.950963
9.9557152
10.110363
10.153004
10.195709
nan
nan
nan
nan
nan
nan
nan
nan
nan
nan
nan
nan
nan
10.105459
9.3500977
8.5498428
7.713141
7.162138
6.9361691
6.5595751
6.3002424
5.5206509
5.2334509
5.4290485
4.9081535
4.7405419
4.4659734
4.07447
3.7411118
3.6404302
3.6251459
3.3219094
2.8241727
2.8189631
2.711899
2.4713867
2.2885568
2.3840773
1.6451747
1.6490004
1.3939694
1.2683392
1.1862603
1.1685318
1.4960371
1.658884
1.7786264
2.0814795
2.3962674
2.3973699
2.5079901
2.9334905
3.1063168
2.9711983
2.942908
3.4087605
3.5213749
4.0187621
4.4279008
4.45401
4.9677253
5.3577571
5.3451581
5.7903957
6.4517045
6.9111242
6.7215886
7.4461541
7.9770355
8.3685875
8.9353695
9.6439543
10.271133
nan
nan
nan
nan
nan
nan
nan
nan
nan
nan
nan
nan
nan
nan
10.170651
10.057378
10.05631
10.130249
10.091615
10.130218
10.169168
10.17329
nan
nan
nan
nan
nan
nan
nan
nan
nan
nan
nan
nan
nan
nan
10.12558
9.3995838
8.5972366
7.9599018
7.5450392
6.9764318
6.9915743
6.3540649
6.1364093
5.195683
5.009954
5.2460628
4.517993
4.432766
3.8182669
4.1776595
3.6664052
3.4621627
3.5265648
3.0141966
2.7460554
2.6845658
2.6823659
2.2732708
2.2007532
1.6451182
1.5728265
1.4075512
1.2528604
1.1685318
1.1516898
1.4795634
1.6104816
1.7580881
1.9273843
2.324122
2.5917594
2.6495574
3.0067081
2.8971784
3.0596998
3.1457102
3.4937055
3.4521816
4.0554552
4.4367256
4.8496628
4.6593904
5.0843201
5.5648856
6.0044026
6.5416493
6.5267344
6.6420679
7.5087385
7.8729286
8.2726316
9.0011263
9.4393024
9.9963474
nan
nan
nan
nan
nan
nan
nan
nan
nan
nan
nan
nan
nan
nan
nan
nan
nan
nan
nan
nan
nan
nan
nan
nan
nan
nan
nan
nan
nan
nan
nan
nan
nan
nan
nan
nan
10.068398
9.3167887
8.6989937
8.2464743
7.5371504
7.3208113
7.2937045
6.4593544
5.9697008
5.6258106
5.1613169
5.0234942
4.683373
4.1980119
4.2943516
3.9864261
3.8774633
3.4989793
3.2800562
3.2180495
2.6632695
2.5708594
2.6225727
2.3433073
2.1247852
1.5990781
1.6219194
1.353003
1.236806
1.1516898
1.1357341
1.4678392
1.6689184
1.6697842
2.020077
2.2362242
2.5046468
2.8249464
2.7735758
3.0552588
3.1328673
3.3743069
3.446142
3.5539389
3.775034
4.3945117
4.943459
5.2496829
4.883287
5.5303102
5.5990009
6.3135233
6.5900636
7.1728697
7.352447
7.9614234
8.3222466
9.1270313
9.5318861
10.05112
nan
nan
nan
nan
nan
nan
nan
nan
nan
nan
nan
nan
nan
nan
nan
nan
nan
nan
nan
nan
nan
nan
nan
nan
nan
nan
nan
nan
nan
nan
nan
nan
nan
nan
nan
nan
10.15913
9.046545
8.7276897
7.9892931
7.6962876
7.2999754
6.8513699
6.681478
6.1121302
5.4328604
5.605226
5.137465
4.8277397
4.6252475
4.0235767
3.5792665
3.8094196
2.9950449
3.4488149
3.2768805
2.5248237
2.7443624
2.5715909
2.2931437
2.2011614
1.698186
1.6493953
1.3331496
1.2205738
1.1357341
1.1206648
1.4526576
1.6582007
1.7305042
1.7641486
2.3668137
2.5857115
2.7605646
2.857502
2.8700349
3.1203134
3.1364202
3.0980713
3.7073958
3.8744206
4.0879273
4.6546664
5.2021804
4.9344249
5.7279792
5.8496814
6.3982968
6.824523
6.9596186
7.2105131
8.1251984
8.4476976
8.8867741
9.5158348
9.8489437
nan
nan
nan
nan
nan
nan
nan
nan
nan
nan
nan
nan
nan
nan
nan
nan
nan
nan
nan
nan
nan
nan
nan
nan
nan
nan
nan
nan
nan
nan
nan
nan
nan
nan
nan
nan
9.9956293
9.2395573
8.5934896
8.1417389
7.8244066
7.4800639
6.8524742
6.6292777
6.2663107
5.5791736
5.470593
5.335269
4.8703127
4.2331882
4.3534875
3.711421
3.6655312
3.1214535
3.6533906
3.0697877
2.7864425
2.6479475
2.5450087
2.2007215
2.1100533
1.6679547
1.7080714
1.3233949
1.2072933
1.1206648
1.106482
1.4024847
1.6412216
1.6822716
1.8599526
2.2786281
2.3897884
2.8858554
2.7392237
2.9278977
3.1212482
2.9371562
3.4265945
3.7063932
4.0723815
4.3052835
4.6834798
5.4819579
5.1822891
5.342988
6.1693821
6.534976
6.526135
6.8760033
7.4766893
8.0086594
8.1374941
8.7430935
9.5648413
9.9770317
nan
nan
nan
nan
nan
nan
nan
nan
nan
nan
nan
nan
nan
nan
nan
nan
nan
nan
nan
nan
nan
nan
nan
nan
nan
nan
nan
nan
nan
nan
nan
nan
nan
nan
nan
nan
9.8318577
9.1347694
8.6182327
8.4020853
7.6334734
7.1145425
7.2177615
6.4318767
6.1967502
5.5930247
5.2496634
5.2066851
4.925972
4.1009965
4.4013157
4.0812349
3.5245278
3.2035737
3.2597818
2.7457311
2.7271638
2.8544381
2.7104926
2.4515924
2.3224018
1.7978806
1.6564443
1.3855703
1.1944447
1.106482
1.0931855
1.3518845
1.5927727
1.6384981
1.8460836
2.3828938
2.5547218
2.7956049
2.8406625
3.0197093
3.1627815
3.2624507
3.2331223
3.452034
3.395854
4.3347635
4.7712255
4.9207067
5.2874155
5.5484004
6.029604
6.5452027
6.7643766
6.6705055
7.8128581
8.0339241
8.061862
8.5964746
9.3546925
9.8857861
nan
nan
nan
nan
nan
nan
nan
nan
nan
nan
nan
nan
nan
nan
nan
nan
nan
nan
nan
nan
nan
nan
nan
nan
nan
nan
nan
nan
nan
nan
nan
nan
nan
nan
nan
nan
9.7498016
9.1287346
8.6423044
8.0800037
8.083992
7.2572894
6.8026481
6.6806149
6.2012
5.554893
5.0787549
5.036808
4.7850242
4.6083193
3.9582472
3.509985
3.8662732
3.5352774
3.1060402
3.073632
3.0953023
2.6761341
2.3989034
2.396343
2.3402507
1.651883
1.6447508
1.3747197
1.1814948
1.0931855
1.0807756
1.4069111
1.6545005
1.804903
1.7997949
2.0236151
2.3862772
2.7496786
2.8143289
2.7527018
3.1906037
3.364789
3.56475
3.5094714
3.9066427
4.2522483
4.3612022
5.2011886
5.322823
5.989634
5.9645834
6.4115334
6.6965189
6.8352189
7.7217236
7.8269105
8.3557024
8.7185345
9.3504314
9.8729343
nan
nan
nan
nan
nan
nan
nan
nan
nan
nan
nan
nan
nan
nan
nan
nan
nan
nan
nan
nan
nan
nan
nan
nan
nan
nan
nan
nan
nan
nan
nan
nan
nan
nan
nan
nan
9.6606054
9.1854362
8.7649336
8.0442963
7.8900089
7.3822851
6.6144891
6.3628864
6.343626
5.5471497
5.7135015
5.2538385
4.8479152
4.7124906
4.1606288
3.3225243
3.7751734
3.4305515
2.8454354
3.0011208
2.9398894
2.7048383
2.4995759
2.4787509
2.1921005
1.7435294
1.6629925
1.3642353