# vtk DataFile Version 3.0
WoSt manufactured solution structured slice
ASCII
DATASET STRUCTURED_POINTS
DIMENSIONS 96 96 1
ORIGIN -1.0 -1.0 0.0
SPACING 0.021052631578947323 0.021052631578947323 1.0
POINT_DATA 9216
SCALARS solution float 1
LOOKUP_TABLE default
1.9946887263024269
1.9473399068667172
1.9267349437972334
1.8857159435542752
1.8340226010359222
1.7802183942829302
1.7681730853178153
1.720457612551735
1.6845350918449924
1.661300082044597
1.6366680163251677
1.5943795216902665
1.5580657270302682
1.5291155713414084
1.496104003401163
1.4643418540097568
1.4387524570443426
1.4313766984512633
1.3881303012716923
1.3563693673305204
1.3348344138343888
1.3250749571479874
1.2844334356355491
1.2561941820837652
1.2525471775284465
1.222685569672717
1.206401478477158
1.188291051016483
1.1792219510482123
1.1408797179124703
1.136786474656404
1.1103921746409913
1.105241824692079
1.0869040842606583
1.0726484629087276
1.053177673465255
1.0647786451193835
1.0470345856047922
1.0361252188399914
1.0332094752836662
1.0222381723395326
1.008964728816732
1.0308474899592288
1.0119365178275341
0.9894688545752208
1.0183318185349073
1.0178526323242705
1.0055639588360152
0.9942312585740974
0.991200471456732
1.0103929432149417
0.9949466964062659
1.008945509773516
1.0123216976543348
1.0170892395667628
1.0186765287609127
1.043814920264277
1.0521313759068005
1.0388620276150438
1.0492439125462147
1.0684509642160307
1.0917434277257163
1.093419500456704
1.102193493512937
1.116792595744538
1.1368923492672316
1.149207452939729
1.169828788328594
1.1793023427072138
1.2186578723788932
1.21924192882351
1.2525844158700907
1.256884535189365
1.2793087351331571
1.30944203761303
1.3459969933284397
1.3525569797173518
1.3840648078686877
1.4097752351377983
1.4489386001234545
1.4637353706616418
1.4930245344005655
1.5235650657500064
1.5554224011993703
1.5774788720598314
1.627048806161598
1.6537691980779992
1.6902569885277596
1.7122353099992325
1.7607885859230712
1.794505742314497
1.8328016173797488
1.8780836252141337
1.9136256695214569
1.9703109397253262
1.997731435550894
1.9621002129279561
1.9202311516237527
1.864767725949245
1.8329325687892686
1.7921509580629262
1.744684315053327
1.731162294428732
1.6894261676992277
1.656872163215331
1.6106207478236456
1.587245550384136
1.562172377640013
1.5239686058421753
1.485539174130723
1.4678474309726892
1.4391339248235628
1.3870168615687295
1.3729232517637566
1.3478168201897243
1.3121958831775171
1.2803033622252586
1.269778076920303
1.2443567467563519
1.2171738941303776
1.198932949791524
1.1970385612171224
1.1564000564789407
1.1487595923950868
1.131429534576973
1.1140352984526658
1.0867897461889346
1.0714489932154023
1.0831065379508982
1.051407582857134
1.0400772044380624
1.030830264516952
1.0273780752920347
0.9970728738252952
0.987308654961115
0.9877702064128349
0.9901485305229636
0.9786182681630122
0.9643598882604018
0.9752475588864142
0.9606072074353864
0.9611165308551651
0.9714657657208776
0.9559167815423625
0.9616685280079916
0.957393469467304
0.9602191673919537
0.9670588654406045
0.9695353444537929
0.9769309627796969
0.980594473146956
0.9900891333464577
1.00151709589987
0.9882023687524201
0.9995169260325857
1.0137271252540265
1.0363324016677091
1.0330831903787345
1.0502780595976462
1.0776362184337984
1.0723338035729915
1.0977053902484164
1.0954088163312499
1.1260358696176067
1.141056503388797
1.1758636948971153
1.1815204910570682
1.2152316048498049
1.2380266456904407
1.2497914487435122
1.2661162159482984
1.2980327438193189
1.3099818590565597
1.352073442554681
1.3815498620967006
1.4028318427497792
1.4182201925407694
1.4568796345243
1.4840678709697073
1.5242467442215457
1.5441483885023208
1.5788628145775114
1.6074846787786776
1.6555121249884546
1.690453816015848
1.7303171639206025
1.761768414352735
1.80027456428841
1.8300375275771472
1.8804132890258733
1.9360454116306494
1.9634022557337572
1.9003248734759968
1.8779857307698757
1.841450873240139
1.7883184700339276
1.7487691040982887
1.7122456999938005
1.6772953463853135
1.6531696332604986
1.6116608752594455
1.5670147399885812
1.552971124893977
1.5115557221475724
1.4726138593467724
1.4770436783521492
1.4260257710337028
1.3764356722364117
1.36125631288427
1.327531278008538
1.2955186687516353
1.2613649860167317
1.2606544295099598
1.2299172866658117
1.2099723670970146
1.1800976764427
1.1594930800393288
1.1592606986514955
1.1183597501010716
1.1031590119595105
1.0720042277701807
1.0676173177631272
1.0632239698177632
1.048676325539383
1.0325660916558186
1.0161127207965874
1.0049329127661428
0.9733251926395712
0.9645603511428275
0.9756061147366842
0.9570866391528651
0.9604396546890286
0.9297971240594205
0.9371927247052041
0.9261996803873834
0.9228430229541099
0.9130795651342839
0.9225498444982585
0.902219001622317
0.9145218292365318
0.9163002159972213
0.9325940486687573
0.9190583371988936
0.9152554523052628
0.9343823180816152
0.9431166770397182
0.9508384038383487
0.9467117327821307
0.9539383069554324
0.9563787960814305
0.9684870446676987
0.9791746604028589
0.9877954511774342
1.011197063092138
1.0086052986052305
1.0205618066493702
1.0448439628927328
1.0500280049004043
1.0634481454509432
1.0828925049512401
1.0961415155681686
1.1185557095013143
1.1458471385888807
1.1629477902651462
1.1769847616468807
1.1874548872807926
1.222797544545047
1.2494896636022188
1.2857977029667715
1.2946537482382947
1.3340657408649166
1.3714561039500701
1.3953624953984292
1.4298142050670313
1.4479202216969131
1.4752752075710658
1.5142643534300428
1.5275411682475757
1.5804277405984002
1.617203027422869
1.635741785719792
1.6907497709533632
1.7353157614373693
1.7606776599375635
1.8012970138347124
1.8251286931802297
1.8719044357003112
1.9157346048125012
1.8796086572524386
1.8299288894097243
1.7858116543768932
1.761694401596566
1.7201370736442978
1.6797516470348013
1.631830876603044
1.6097605140936162
1.5595386952870187
1.5380577172529222
1.494321787925228
1.4655009096118008
1.4467092860283903
1.4093662171628698
1.3768251709915933
1.3503182662063702
1.3130994542869943
1.2742049358673218
1.2618300811574383
1.2500523156183143
1.209461076936103
1.1897650684959369
1.1603368922593322
1.1527196308528715
1.130496567694928
1.1102820931584898
1.089034287683791
1.0680968277336387
1.0413128805496659
1.0206182630333005
1.0257823041007452
1.0050703487752772
0.9917566111404971
0.9789708173431044
0.955646674230798
0.9583295148942963
0.9337752609203
0.9317871343043189
0.9079864611399133
0.9055778031473751
0.9059433411488765
0.9056675172637833
0.8886712895576501
0.8843898344653385
0.872794758024929
0.8874056455468878
0.8848576202583566
0.8720996482341447
0.8942247206836081
0.8752982646882833
0.881970989257588
0.8796085819784741
0.8860906305940418
0.8921726008182891
0.8879532093039173
0.9055465557852551
0.9033628954222881
0.9131264190520173
0.9247208015354786
0.9473296654685247
0.9539798325829262
0.9713428808934415
0.9780657387165798
0.9762442897853109
0.9891638835537305
1.0281733398904598
1.0240967297465335
1.0477158723870652
1.0583822461681727
1.0830724158348524
1.099281409024766
1.1099736323987857
1.138621942835141
1.1538758065581851
1.179321023817239
1.2077186747928148
1.232378338000941
1.273658931113419
1.2869762586822524
1.329056401209198
1.345387588336768
1.3860819357054424
1.4072891044343097
1.4283854615868259
1.4731628629326594
1.5121574496586436
1.530339677741017
1.570526180353548
1.5919969423842304
1.641537510170089
1.6629553691512526
1.7344519466394754
1.7563986597565189
1.7985984561748438
1.8381794183758748
1.8717265847635898
1.8433815577660222
1.8034316953634517
1.7493703109735697
1.7244105555980167
1.68399566039013
1.6261892567453473
1.6074551139474083
1.5634883508711817
1.5266521835993538
1.4915838786288442
1.4646221961901544
1.4315089222006872
1.4116449589301037
1.360439490261069
1.338977499421136
1.315688607062473
1.2789497319182705
1.2438697559466179
1.2153966834054506
1.19799620648131
1.1699402550491707
1.1579543467838957
1.137068945593769
1.1161119244030204
1.0850209356664953
1.0593665616515113
1.0298872260966285
1.0346324020361803
0.9987949441936637
0.9667488171326001
0.9686772359702464
0.9586191432012413
0.9415961682785272
0.9238171130887939
0.921082614083791
0.8967410381565637
0.8956977675893416
0.8941462591424146
0.8809840247914651
0.8767010377289318
0.8502528636588499
0.847830796577725
0.8400610466375152
0.8453333424937154
0.8463900326274681
0.8600466943915565
0.8320013812360498
0.8290997434348039
0.8303081037095807
0.8367100138077443
0.8361599079487616
0.8403534689590698
0.8432992946926484
0.8408865279716794
0.8530509839715844
0.860585464884274
0.8971279064664024
0.8821941978976611
0.8924899631723515
0.9103162890426694
0.9101179739902766
0.9239733021735034
0.9209553901062659
0.9487866373988516
0.9575518802397972
0.9832770192746288
0.9853771695392718
1.0141224939429054
1.0205588084961177
1.0428304800039936
1.0615727288445271
1.0789705070982656
1.115729183867989
1.1229577241691395
1.146784626717551
1.1828612579982523
1.199524609808877
1.2189320494555407
1.2443422086375624
1.2755508091225598
1.3065865214878667
1.333507999395513
1.3610320716828748
1.3887163620684184
1.4182899934780169
1.4653060199023713
1.4903129411947957
1.5271609162359097
1.5796923148205353
1.6057886749942227
1.6299291590425529
1.6753684085001717
1.7142153921559178
1.7654444683810622
1.7918809445384156
1.8278201604629565
1.8072088891438893
1.7635041988758369
1.7238545898305637
1.6672491992070682
1.6176191488424
1.608838907690435
1.5642499239300698
1.5223139811477733
1.4793373188516452
1.4645012825962993
1.4293250265702484
1.3919668883203176
1.3592535721420769
1.3159282465582562
1.2879544965758047
1.278587822486928
1.241323471098221
1.2147617103637731
1.1901402870914657
1.159331232058307
1.1405910073621732
1.1104087669818434
1.0881677195687058
1.0664141799409557
1.036637403259901
1.0363217411624261
1.0020747830198737
0.9859264460435031
0.959328159380487
0.9549647941226157
0.9326792739709208
0.9257501582878338
0.9114225830810778
0.894607125721161
0.8843364956396644
0.8730470220060964
0.8564049526912375
0.8483352488349504
0.8526086126340722
0.8428895247922459
0.8262793540204578
0.8278054417294408
0.8172170396702096
0.7971831201515125
0.8072125192408612
0.8024914992401402
0.8102313802426463
0.7952799622752392
0.8062881463365295
0.8124129470692016
0.805083671925284
0.8064713832249857
0.8056264683036172
0.8177692210677363
0.8243920588607289
0.834939105601606
0.8369625584898075
0.8321255950918816
0.8312250555054925
0.8516074326797554
0.8772200992493756
0.8807485573802771
0.8958359386760409
0.9079836739053323
0.9056674593284262
0.934518915728763
0.9588139692022808
0.9766183521159778
0.9893657511122171
1.003005606982993
1.0196343622929838
1.0436279656969392
1.0742176182729808
1.0878169924757508
1.1121829899137319
1.133573159275199
1.147200320650578
1.1889743800280819
1.2163360831646255
1.2498780949872648
1.2707382659701252
1.2900054036692148
1.3278114040725209
1.3565534803796486
1.3973085372322025
1.4173018939354063
1.4483334024271382
1.4803756501672591
1.5300972684580512
1.561336931111301
1.598868599125169
1.6298097879869378
1.6864023163896182
1.7138624171619017
1.7614324276892765
1.8100478200487722
1.7641326660595087
1.718625140851621
1.6827904435265175
1.6422462403349305
1.597774083699941
1.5691835142997888
1.5197704960920466
1.4953920021277551
1.4565276719383657
1.4300885746414222
1.3921695989199125
1.3518414347468795
1.3170511046082323
1.2958150172777636
1.2544728213017584
1.2209063971984944
1.2103212295863097
1.1742951429052229
1.1450640405001715
1.112383356663628
1.1033343756721141
1.0742762582400798
1.0572733796405676
1.024467764922098
1.0234884133160818
0.992859676409231
0.9675793622770091
0.9461984160155467
0.9252276608691972
0.9104383873280908
0.9025259958945159
0.9089336377085118
0.8774843471636066
0.8534154551166824
0.8409169684813067
0.8231098685951959
0.8261316073835296
0.8159810107343893
0.8023408557807308
0.7899077508970197
0.8143153040162311
0.7803152647645674
0.7719347413268622
0.7659221490013728
0.777500777160073
0.765224669188534
0.7702041966705299
0.7604168724987243
0.7523109478940898
0.7507398198941351
0.7602892338602124
0.7741502640755682
0.7786029106848835
0.7730081526697363
0.7747963036461335
0.7842534056473728
0.7953823458426811
0.8003379959149901
0.8082443751197795
0.8140451049460994
0.8402031443710096
0.8386389667001996
0.8608639472035711
0.8673123517382642
0.880759710054051
0.9004163645487007
0.938321759109351
0.9555254869210341
0.947176316490161
0.9683489407243047
0.9789818873335013
1.003376834484208
1.034193626183597
1.060934012188058
1.0695572554551105
1.1047404785327706
1.1224365762932154
1.1526882281117266
1.1668363023174886
1.198795455953108
1.2328976783733152
1.268570158492679
1.277171314205083
1.3334606101463786
1.3522869721379125
1.402138985616082
1.426937350930059
1.4436138332861164
1.4844994166830359
1.5285188688850921
1.5537038335683335
1.6048842556847018
1.6283606748646713
1.6737461666163724
1.7239103061523509
1.7330905220747
1.7457825823494906
1.6981593791024094
1.653238461898083
1.6045127550358091
1.5684331429380263
1.5303309975820096
1.5002996432630529
1.4555009192522146
1.413673278208218
1.3891581163270021
1.3500919803798852
1.3177155692305527
1.282080512023291
1.2696368684726118
1.216064484130862
1.189771859175508
1.1617998003414818
1.1319394070797328
1.121257237454767
1.0931247052803172
1.05400781559565
1.0339870727700464
1.012716540298024
0.9796900647567478
0.9624107924692216
0.952681121988133
0.9292683448126298
0.9066498240911515
0.8985741522603314
0.8787441888018765
0.86613848049523
0.8390297457270108
0.838734894831636
0.8094513905847504
0.8049654334766935
0.7926694854417864
0.7901707459036112
0.7628123298733466
0.7739542811034851
0.754573808278896
0.7641083655745522
0.742108624913697
0.7279830779096034
0.7279370758384957
0.7163466796509064
0.7337717557567011
0.7135112442247704
0.7340330812712003
0.7198024780822664
0.7296124876017337
0.7449585576439811
0.7360019927410909
0.741023365755807
0.7319234535520531
0.7495780097664193
0.743330115648333
0.7615328008076486
0.7545880251088605
0.776260868853532
0.7824149165172647
0.7952411340664165
0.7959380455198636
0.8112780614484693
0.8385849669212943
0.8613354504673458
0.8610769171647602
0.8899918125587041
0.9034587170143241
0.8987176338334489
0.9365195314032271
0.9504856624015442
0.9724451222144704
1.0105138858340839
1.0240953671777884
1.0382514224476378
1.0638079241798648
1.0738677530367862
1.1200437161654968
1.1452559793436794
1.1658236409323144
1.191877912695428
1.216770517403061
1.2456004322016574
1.2788291377969496
1.3134991338888646
1.3587038015004835
1.3672266377889488
1.4073288376200142
1.4550087547900528
1.4901544366843285
1.5266520497351437
1.5785915509229935
1.6078019117725857
1.6558466468576234
1.6771410859496236
1.7229405604066925
1.6948681812254722
1.6448774636357275
1.6117651107268538
1.5570351284589314
1.5218240968793209
1.493378911534451
1.4610763211036375
1.4328093751196531
1.3817036015044055
1.3438469688934676
1.3147853181238314
1.293273500777971
1.2449323415153888
1.2169144928067048
1.205051309094946
1.1514438053681817
1.1317763776145116
1.1069094604218146
1.0730425878008114
1.0473081079611737
1.0360717737560317
1.005616232043969
0.9909626138228734
0.953516707065756
0.9483344753431923
0.9229698342339282
0.8888573539616605
0.885268924041881
0.8643238975721224
0.8476863121280487
0.8393030296700001
0.8086129807804593
0.7939425996437599
0.7848349341499017
0.7864260496249528
0.7709714897444295
0.7537986290072936
0.7511466732262051
0.731354744996243
0.7238985835308112
0.7148710340034623
0.7033231133986665
0.7090082664938633
0.7005454910708663
0.693611146305558
0.6955800751222413
0.7044351851290266
0.6905270577499267
0.6866458632785483
0.6991462426577881
0.6931743072443546
0.7000267085454388
0.7003446188643716
0.710572591886499
0.7013950124493488
0.7053652950875815
0.7174968967497127
0.7399204615412867
0.7399202667356601
0.7445997846612221
0.7458325272660663
0.7681779391394856
0.7891105776824525
0.808997776727106
0.8132395962514041
0.8292451275398234
0.8550098609717017
0.8571273480368639
0.8745677649765221
0.9000354039567036
0.9262637636191527
0.9517167672233039
0.9644324754524811
0.9741506214815465
1.0013406108074412
1.0247709960768585
1.0486752638444485
1.0750624922821979
1.1010399057340239
1.1217821384894977
1.1426390036532914
1.1969415915357644
1.2238065802054543
1.241453431367173
1.2831248326644356
1.3156256182627173
1.3472042082908244
1.3857676772134808
1.4172411355018912
1.445020014763187
1.485955197238469
1.5404465106472987
1.5652846008102483
1.6041945978084413
1.656232122062841
1.679693639683394
1.6562020287568524
1.6162906916250197
1.567248027125063
1.5263330870281622
1.4858397221361006
1.4632446695268764
1.4225885400717657
1.3838412390244874
1.3401003354876493
1.3024997971021697
1.2698747613438084
1.2482435132169425
1.213221596189901
1.1822759294141871
1.1565757080476216
1.1129104181683358
1.098494050367863
1.062672971175693
1.0354995182329583
1.006845376373556
0.98753551127832
0.967132644977518
0.956496023999522
0.9155565663380973
0.9047448443225349
0.872088205768757
0.867784906112088
0.8358446882794782
0.8210490829296386
0.801450042331803
0.8062173726592645
0.759166787822607
0.7622585923623203
0.7432940005752707
0.7467583179616427
0.720374356936866
0.7517505043708101
0.7043381135581719
0.7011500104319975
0.6799398766156826
0.6869300914247929
0.6744578945332812
0.6857947713433263
0.6635391406366652
0.6567921686082435
0.6527300806183607
0.6477740863089466
0.6550955404879497
0.6555538220172662
0.6691866162174837
0.6682759069732772
0.6711867039486907
0.6604208745088134
0.6761474882727669
0.6637862339889258
0.6855069343682448
0.6861159896023641
0.6921270700262357
0.6969984863888752
0.7311956287791379
0.7228134538867172
0.7302179694250663
0.7427998148243281
0.7572805508249318
0.7808206879103305
0.787945609915323
0.8258350914726355
0.801865660760999
0.8371865073823639
0.8493385712658233
0.8946085910823893
0.9088048143006271
0.92947866509393
0.9397430375648548
0.9760495681865711
0.9986705330529403
1.0382955168839905
1.0512133316792305
1.0587907470669842
1.0989454631284816
1.1297233713443013
1.170900223226091
1.1891354660564126
1.1962548409203928
1.2567007164968464
1.2899475962981375
1.3161841635617246
1.342329782127168
1.3739451265018563
1.4109506570227766
1.4526978415503604
1.4890705372379778
1.528250711467535
1.5825818412192207
1.6220447348500984
1.6524277523539161
1.6205731090103237
1.5813208445131903
1.516588904458181
1.5043327535530961
1.4549339193189252
1.426301959666032
1.3805508534278141
1.351932190995202
1.3060459284573593
1.292904244236589
1.2440362179456588
1.2044942487674073
1.1864892553838233
1.1598879017918131
1.1147301463509889
1.090851861951952
1.0651428443711566
1.0263614919288062
1.0018387364531047
0.9788583148608953
0.958255660647472
0.9352460940231582
0.9169383619390756
0.8964548603224434
0.8634591386780773
0.8404529811201081
0.8328005939515571
0.8155942487427755
0.7897719010196257
0.7806409119175977
0.7498572011175552
0.74346290231446
0.7151839556756145
0.7201077480374419
0.7027777331038354
0.6737906874122026
0.6679769500555588
0.6707053819894085
0.6630873132738272
0.6561810320986767
0.6571728548899547
0.6457560102736293
0.627357156398082
0.6246164027401162
0.6305470952515002
0.618435050634256
0.6317896607302887
0.6324480897693096
0.6300844758081902
0.6192655108239109
0.618422628306204
0.6352513185013813
0.6174926117118381
0.6403192755092069
0.6421917395599921
0.6421291013142897
0.6522109953013555
0.6839330586407648
0.6621393245219441
0.6903756022264342
0.6881069111076344
0.7046051070229238
0.7042793257491704
0.7332600713876273
0.7439512066980306
0.7687694978820475
0.769925469078018
0.7965152040203549
0.815463019405799
0.8273179214915681
0.843671057430629
0.8574174888263068
0.8900479801071155
0.9047790256224144
0.9382709927541493
0.9614433381529334
0.991937927052527
1.0272972221831376
1.0321295474287022
1.0555541935825306
1.082353324011837
1.101394817746864
1.1501176137656908
1.183906414524511
1.2192564131692192
1.2446751279517734
1.2851016979610168
1.325070495748655
1.3575826260583037
1.3871557697922994
1.430877343979995
1.4669260790450698
1.5055128932004533
1.5545281068940033
1.5738788181370584
1.61918525857476
1.5750957638508558
1.54448966112
1.5167289347839894
1.4710783965898124
1.441651403726367
1.39683052675433
1.3507691391564076
1.3092807293967266
1.2828525432910063
1.2560960349941006
1.2114195626084219
1.185217145260835
1.142021865470489
1.1133468013173176
1.0814231446445963
1.064212157220361
1.021315397820807
1.006381374481261
0.9741966142253405
0.9526709495376576
0.9181706622467263
0.9049483812549204
0.8767706244571981
0.85540376309095
0.8461401998567337
0.8104520236168452
0.7943843213631325
0.7749204479578677
0.7469900825422073
0.7381369014775495
0.7257086828377525
0.7191744566439398
0.6938796934019337
0.6840639119372399
0.6665694496953657
0.652048910735646
0.6363267675010664
0.6338420389321134
0.6372996526183793
0.6336147593786527
0.6247330389239028
0.6084986000840389
0.62407964185204
0.5931417281495818
0.6046244146145113
0.6005770693453971
0.5909934246649957
0.5839259310673328
0.5873734614351629
0.59963542455143
0.5817795271330659
0.6077843007834792
0.5864653402774859
0.6150123211374394
0.6183210007510396
0.615554382339971
0.6363751552544197
0.6260155963164836
0.646809070989673
0.6676270085130266
0.666731754242665
0.671121870378266
0.6924094390259378
0.6980417775634401
0.7016699747811909
0.7214643947073286
0.7357037557058179
0.7648023404355541
0.7776441304490925
0.7962651082215546
0.81523490255296
0.8511725827905587
0.8461562698445115
0.8748291904154403
0.898576890652879
0.9253600888889248
0.9451140726757663
0.9756457759278959
1.0123317089517463
1.0346773486136254
1.0707286513977412
1.0770167360167355
1.121824909016727
1.1650559353929701
1.1799905188509672
1.2158751674748238
1.246901880876807
1.2802702906667918
1.3050399377555417
1.340488175891667
1.3965798955180937
1.4247599665963444
1.4537703886221198
1.5154783097206668
1.5580161074574848
1.599947069880195
1.5418821996379852
1.5232558090092077
1.4805665144266782
1.4339817376902901
1.3957661722890757
1.3558713769818875
1.3270347758605752
1.286511133024197
1.2493979082718054
1.2232832695127394
1.1972108911635029
1.1502216213920948
1.114412310824792
1.0796130421284298
1.061398205337312
1.0353331477358283
0.9891573397592375
0.9684291655085593
0.9428579099112391
0.9184622251408978
0.8977144939400776
0.8581439800325303
0.8387537462091815
0.8250500311688821
0.7954839771842637
0.7786301230624857
0.7742448229357075
0.7534499697984949
0.7313398863235671
0.7082000311597665
0.7027578602366348
0.675576424106658
0.6627546546821274
0.6396390362868885
0.640589528776293
0.6305347228367965
0.6053350184741194
0.6042971648074271
0.6036419797568736
0.5927561273042422
0.5851996964935895
0.5741205016871578
0.5707819918848086
0.5703275966916346
0.5579672354865218
0.5560868963660808
0.561650363351258
0.5523771335376663
0.5658449944368255
0.5686480417790112
0.5513016032180599
0.5699246166795364
0.5689000075903357
0.5698141733709323
0.5771585165313872
0.5862212707607992
0.590211925072784
0.5861654289924713
0.6143125913151471
0.613436249140165
0.6298630092998314
0.6523637075754184
0.6481065445881071
0.6773741488461013
0.6726357212232453
0.6903353484093312
0.7128223343128203
0.73023215410186
0.7532886777693405
0.7739359546965576
0.7845573251333434
0.8050981003623261
0.8184118963190594
0.8454362368331266
0.8614366539879067
0.8973001606302361
0.912432243604424
0.9572726920477432
0.9668119217124674
1.0088659909012978
1.034614844846796
1.0422695569137743
1.0856807063325866
1.1180366527200316
1.142051869061566
1.1889440464241927
1.2113251311228888
1.2488646965050254
1.284441831877426
1.3207242607744714
1.3625691666327102
1.393394592793722
1.4367669026786862
1.4672325916708813
1.504192264182421
1.5450637608677489
1.5260712183495524
1.5036951711978335
1.4550117514775054
1.4052609309470108
1.3622450772034522
1.3340437664033897
1.2931377113302012
1.2443995336959066
1.2153809571479772
1.1789929040771272
1.1419706214847152
1.1111870820246876
1.0938541035416685
1.0655455752244487
1.0094605062025541
0.9881968243767272
0.9712339367678008
0.9421324180358254
0.9083656071103493
0.8957327181576219
0.8647734099940085
0.8356388938317827
0.8249398522863461
0.7831217731794193
0.769549438447478
0.7465017904700341
0.747725652368285
0.7074318201873371
0.695928757879769
0.6737011891802772
0.6598268580946498
0.6538311492646548
0.6331453232785134
0.6209002830909827
0.6100490052665236
0.5958251808658123
0.581274104101286
0.584969272060142
0.5689175886295796
0.5663079479646789
0.5495720833980153
0.5478007203303326
0.5372913893860592
0.5336492954679348
0.5330223433708831
0.5238167828100645
0.5364594843438601
0.5390258576371301
0.522856440037309
0.5285514429242303
0.5305246721765001
0.5487709179862276
0.5318458019650583
0.5374988121897831
0.5478364906235237
0.547249407822098
0.564744796780611
0.5723811748805665
0.5860589421275779
0.602364671058827
0.6056565496851466
0.6031504173699339
0.6326375707157166
0.6392409524872895
0.6454691898985643
0.653812805457911
0.6764692483402641
0.6974807934020465
0.7138659579616224
0.7306778458339672
0.7412760551211449
0.7652404834174453
0.7951201550898634
0.8276135712063406
0.8409579835842307
0.8569328566671539
0.8797547256140182
0.9160622429744483
0.9296433287639015
0.9679797431804068
0.9977150342320166
1.01277097762528
1.062663045298098
1.0706161354995698
1.113101473241695
1.1600634061253168
1.1780039833304554
1.2205315324382593
1.258906973562631
1.2873293654778433
1.3253235182853547
1.3745299313935355
1.4048270470506874
1.4474087961376645
1.483430579312771
1.5279707079022335
1.4895971888251625
1.4491920348137581
1.4184439745861586
1.3605002170762608
1.3371061096594337
1.2979208519704604
1.2557603728509301
1.2130599954758499
1.1919738677028733
1.1495343237130835
1.121834456688037
1.0897892742377266
1.0593218417766606
1.022320274831042
0.9803478474390089
0.9741994076919325
0.9422951741238608
0.921926329268946
0.8714421869355351
0.8688841253135499
0.8354916805814431
0.8152505886674899
0.7785157136446682
0.7722308213897843
0.7431712190031051
0.7238184663229427
0.691016388758779
0.683799130751607
0.6490860809180642
0.6420890476567211
0.6366755408512323
0.6036293970182801
0.5824470708209885
0.5991231707229073
0.5744539991753024
0.5597984898418338
0.566789523747799
0.5431265267733071
0.5413249534080646
0.5244248513478353
0.512509676753702
0.5183903416002663
0.5219593268092209
0.50939065644714
0.49999817662192825
0.4953027369112574
0.5063959867176483
0.49841853871231684
0.4996574437702627
0.4896283893822196
0.5006316067606255
0.5073693047900543
0.5148826381118595
0.5120789205849303
0.5175842283751968
0.5339450045879232
0.5378938436959931
0.5319071795397802
0.557266036849028
0.5660995590695768
0.5640544211619116
0.5764375321448016
0.5799941294124009
0.6055947013157659
0.6159393518561258
0.6349948891523081
0.6486168288828299
0.6610780399662126
0.6824866612155203
0.72093357657764
0.7237815022577108
0.7492772730945552
0.7594178558022706
0.7788448644041501
0.8210199162338886
0.8318761017856101
0.8525968329873531
0.8890109219992255
0.9143717257795764
0.9460574375223715
0.9585838898246035
0.9938289299548583
1.0203246654977614
1.0484798183998247
1.0961173220834546
1.1221448854142846
1.1504563038698652
1.1871743073754202
1.2304190794578833
1.254670677910746
1.289930753876013
1.3335877838820103
1.3765571961083318
1.4185873095079622
1.4537749741891608
1.4939295891506152
1.4555364874734782
1.4339777953135386
1.3944366784817699
1.342031139373382
1.2932748913025751
1.2776305346367556
1.2152677834386698
1.1861723112249922
1.1638062143761732
1.128924515177338
1.0978877693546454
1.0409036048368916
1.0148342790429565
0.9869770760771482
0.9678092114573259
0.9434931567226854
0.9045021299397998
0.8727059135308306
0.8524152591657983
0.8177198265807102
0.7989698035084031
0.7930689004901887
0.7588693972449377
0.733925070947504
0.7037916538156805
0.6879780482116863
0.6588574411250935
0.649461260047644
0.6222778154048317
0.6284990221602553
0.5917792123323341
0.5888740198906356
0.5746579668840253
0.574716285860083
0.5480078444529504
0.5303057073702087
0.5390208895729133
0.5036043310595415
0.5099119457288033
0.507299957949003
0.4953147970932948
0.48283240537373007
0.4795520944929289
0.4625684042740834
0.46930041005443734
0.47427497354752757
0.46763684771606207
0.45478988950680116
0.4571169892672565
0.4693927400587923
0.4617272171530421
0.469244558447691
0.4893196156789941
0.4858562103718319
0.4928155939883282
0.4924115123014623
0.5005473167033253
0.518882589189509
0.5158587139487326
0.5340415774916908
0.5282593215343294
0.5263723023629842
0.5495771123670781
0.5977363822618028
0.5858233375317985
0.6023467418293416
0.623362935129731
0.6421567649963055
0.6374526231405677
0.6691825396896298
0.6878603249946812
0.7078029321235331
0.7438504157442649
0.7606990183443819
0.7832321047888894
0.808404640648235
0.8130598359729255
0.8484843333855007
0.8697685144179796
0.9074672328729878
0.9421575952670127
0.9574150787238674
0.995861755506337
1.0218616394041486
1.0641071089325624
1.0932255596585552
1.1105659129589134
1.1697635941149729
1.1892494267543094
1.2190536048565208
1.2883453357162948
1.291940414887762
1.3475796891249845
1.3850228997706702
1.4239336814285375
1.474869689053856
1.44219653349261
1.4019950261591236
1.371109556589989
1.3123375343692554
1.289801759928542
1.2474457389661198
1.197202445275437
1.1656990815325232
1.1363271259910237
1.0799402814833068
1.0605635268862001
1.0253867894996251
1.001831919487305
0.9635797476864866
0.9429263798903605
0.9106144489679731
0.8919448860083188
0.8484829462588036
0.8285342069952936
0.8160433673846657
0.7784410166326143
0.7486600978660062
0.7179907621028012
0.7109483387887031
0.6906855351842321
0.6684308428400081
0.6291494296777808
0.6351929544638206
0.6016486491619746
0.5845390152683151
0.5731337536898983
0.5605865667118904
0.5487499696286594
0.5287169599637911
0.5243381019260418
0.49693491527904954
0.5029989106662587
0.5029981362036674
0.48897415937832156
0.4730685983486185
0.4641358300498717
0.4601717510327681
0.45949737595315876
0.451505845285949
0.4563749454577842