# vtk DataFile Version 3.0
WoSt Poisson solution – point cloud
ASCII
DATASET UNSTRUCTURED_GRID
POINTS 1000 float
-9.5354052 -3.0571792 8.1226244
1.4951952 4.438962 -9.6124277
-6.2022414 -7.5915856 -4.4420552
9.0288467 2.2199306 -3.6033297
-0.14468148 -3.1119392 -8.2363167
-6.6157851 3.9688416 5.5691624
-2.1357281 6.7193174 1.0621115
-4.1689868 -0.073482081 -3.9895706
6.3762612 -3.9667048 -4.1118999
8.1183567 0.70467955 6.0904393
-7.7535214 8.1422186 1.0479537
-0.63078988 8.0507488 5.0308418
6.5762496 -7.708396 -4.4340739
-3.7347455 2.7259851 4.3904905
8.6730385 -6.4555731 -1.9264579
5.4360652 7.4569259 0.28568235
4.1748157 9.593297 1.0426888
9.4841728 8.6754026 3.520241
-9.6795568 -4.5345025 -0.96983039
-7.6485534 -6.3072243 -3.113878
5.610455 6.7342935 2.4816923
0.84685713 1.1846436 3.7313445
5.2196317 -3.6491644 -6.6138501
-3.2223165 -0.80294561 -2.4157224
-9.835104 -8.6390209 5.5430131
0.82033759 5.9630346 -2.1166236
-7.8117952 -7.8488827 2.4692895
1.7097391 -7.8203259 0.67497307
3.680516 5.4345207 3.672801
-0.8042801 6.9737086 -3.6387317
-3.7608118 -0.68282861 -4.7869773
-2.62098 5.9996643 1.6015275
-6.2198057 -0.9299674 -6.1786461
-8.9841871 5.0842242 4.8381057
-6.3242025 -1.4299636 -8.2679539
7.8821774 -3.3680773 -7.4386911
2.1454167 -5.3978086 -6.6994419
-3.6310444 -5.1619844 -2.1219013
-4.5973878 5.8118429 -7.2875452
-2.145983 8.1960106 -0.8141095
-5.7231913 5.0660114 -2.5349557
0.38961181 -9.2244825 5.5357666
-4.2500567 -9.27808 5.9331527
0.95270252 8.3925962 -4.4413791
-2.5863645 8.9072914 -4.4120903
-6.3122888 -3.891789 6.7772069
2.5300996 7.1823597 9.2648735
4.896462 -2.4581106 -4.8503094
4.7909636 8.1667328 1.5818425
-4.9775262 8.5431376 -9.9279299
1.5458449 -8.2733908 3.7953255
9.107316 4.5751963 8.0846872
-3.6688805 2.9196622 -3.6525166
6.2326303 7.118207 -3.2186339
-1.0585134 -6.4837894 -7.5262952
-0.77741361 -5.3575692 -0.41633144
-4.123878 3.8366408 -5.8002396
7.6489682 2.441056 3.3294418
-3.5558915 -3.6235321 8.0085926
9.2676764 -1.4804391 -7.3433852
-8.7172699 -8.3287134 7.0464725
8.7305326 -0.37357575 6.5992928
-1.1401757 -8.6976156 2.1915476
-5.0071545 3.4814172 -9.707305
-6.0420551 2.0832787 -7.2332726
-6.6764016 -6.4216113 6.0188327
-5.6310859 1.3597581 3.7007473
2.6495638 -9.777462 -3.7352135
1.2930968 -5.8025613 6.5315595
9.3458233 5.315124 5.4142313
-1.8806605 6.7449684 -6.1032495
9.7667036 4.8693933 -4.7079973
-6.5645237 0.67124355 0.04551227
7.8357291 -2.3657651 8.6522169
3.1010997 -5.3150377 -3.8047755
5.4810452 9.5195837 9.4827404
6.8481994 2.7441025 3.8852189
-0.68542868 6.937665 4.8289361
-0.8625254 -9.5174608 7.1248679
0.20208742 -1.1499553 -3.4406211
0.20194845 2.2595518 -9.9570694
5.3460608 3.7537589 -7.5704117
-6.0386353 0.78287989 -0.30517304
4.7511177 7.2460151 7.0884566
0.22876361 6.6650486 4.9594412
4.6183162 -9.1457844 3.9377573
-6.962316 9.6679754 -5.7754617
1.2713491 -9.5275717 -3.325897
9.6708908 -5.027462 4.2097507
4.4482002 3.3900621 -1.5480011
5.5124035 -9.6999187 7.8912425
-5.1510181 -1.0757265 -0.7137503
-0.81691664 6.2127857 5.1307163
-2.8173549 2.8934212 7.5586901
6.6699047 4.2740607 -3.3403239
8.5960426 9.6734228 -1.2803767
8.8443089 -2.1132119 -9.5548162
-3.6582153 0.0020097455 -7.642118
8.2061357 7.5982966 -6.6638465
8.6980295 3.8015082 5.2192659
2.0628955 1.2704028 6.0267491
-2.8821239 3.3571336 -5.5262451
5.3685775 -2.2737935 2.8019726
-2.2903674 -8.0653954 1.9044663
-7.4899335 5.2836018 -8.4403172
6.777739 5.0910168 2.7166772
-8.3357973 -2.550154 8.2714348
9.1502447 1.2860543 6.4773331
-5.0275431 -6.19944 -4.0852861
6.6229186 9.924015 1.4712148
1.2134058 7.9283805 1.8758787
-9.0195189 -5.7833314 -5.1569948
-9.1230803 4.9731321 -1.9764923
-1.0373884 0.28647345 1.8559572
9.61238 0.042839587 -6.552423
-4.6078568 -9.8799047 -8.5754614
6.2134914 -2.1243186 -5.1648173
1.865676 -5.9857855 5.5120654
-1.7659973 0.42020842 8.9071465
-2.1431472 -4.8871498 -8.4893131
3.4505322 1.5100356 2.842433
-1.4520009 2.6983438 -5.3600435
-1.1927258 -3.3715079 5.8028102
1.186828 9.566103 -1.9944259
-4.8895788 5.0251269 4.389729
-3.7154498 -7.5777173 -1.010772
-4.672564 4.4968958 -9.565856
8.4883032 1.1516284 -0.3249889
4.5327988 -2.8908267 2.4485695
-1.9509218 4.9441776 -7.0293875
0.70849901 8.1654205 9.1159935
-7.6486039 0.52640408 7.1849513
6.2842827 1.1171986 -1.7502644
9.1801167 3.4856319 1.9002911
0.31763852 -8.2568712 -3.2139394
4.7728105 -4.9647465 4.8469167
-8.7731714 3.7158637 0.19009708
-6.2179942 -2.0757761 -8.4363737
5.3126559 3.9931517 2.5038266
7.3091421 7.1639414 -6.324554
-3.803766 -4.8489652 2.2413397
-6.9313321 -0.28352767 2.6783547
-2.6679981 -0.02514929 -0.80826032
9.534153 0.48090085 7.0471377
-4.7523799 3.0604672 5.5585098
6.3478327 -7.6600771 2.5734668
-1.1084569 -2.5478752 -5.8549137
-3.0585799 2.5353854 2.515713
7.403367 7.8825188 -0.4705137
2.6056874 4.964932 6.1625237
6.3048115 6.1523242 5.188776
-2.1149523 -2.7547436 -1.354476
-3.2658358 0.48952615 9.1256132
8.7267475 1.887967 -7.9290237
-3.7371833 7.9313183 -1.683408
-1.5059196 -6.6849232 6.331718
-4.9437933 -1.5723846 -5.3642082
6.2319932 7.0252056 -9.6764507
7.4930654 -6.9425578 -0.6613782
-4.7768583 -0.40024671 -4.8979435
3.2090006 -6.568274 6.6028504
-8.1266794 6.7074947 5.4593287
-1.401929 -7.9713163 3.3517289
3.5121768 6.3186426 -2.6577353
0.95716941 -6.3369069 4.6746054
5.0951982 7.0473509 -9.1950073
-0.42190328 4.1403832 -1.9795215
4.7651529 2.6174901 9.3785686
-1.5328636 9.7025013 -4.0489082
6.4592113 2.645788 4.3897867
6.6014485 9.2660675 -8.2876873
-2.6630757 1.7286853 4.563014
-3.6380627 8.3753624 8.9113941
-6.7542486 -7.1686645 -8.8905735
-3.2994659 -3.2519236 -5.0894475
-7.2047229 -7.799067 -9.7994595
3.807935 -9.6204252 4.5615616
6.0831742 8.0711327 -0.013215237
-6.8796215 -1.353343 -3.4327159
7.8645134 -2.6052814 -9.2210693
-6.7580705 7.4731779 9.5127335
7.8740854 0.2384108 -5.2133765
-9.6069803 -1.768629 -9.283474
-0.93121314 6.3392572 1.0211439
-2.969003 -0.5651018 -2.7223952
7.4468665 1.3809596 4.4367051
8.0101185 -8.5658875 -9.9648952
1.6543291 1.4470644 -2.0949197
5.4742985 -6.508831 -7.7715621
3.8782861 6.0124936 -9.1741161
7.1830745 0.37480065 -0.22967482
-9.2478418 -6.8664126 5.245028
-4.8899579 -7.0926514 -4.97926
-4.4537053 9.7277374 5.0091515
3.5581365 -7.8224277 -5.7433558
4.6752605 -2.1213641 8.4731598
0.53116965 0.86887658 1.8797227
2.8702602 -9.9132242 0.80031604
-9.3616447 -9.3065996 3.863405
2.9577787 -4.0310168 -9.4367714
-1.672632 -8.8742018 8.3926668
7.7726111 5.7114501 1.7698038
7.2024398 9.3679447 2.2052336
-0.78293842 6.2625184 -8.8349113
8.423583 5.1254382 2.7826152
6.9473109 4.0772529 -7.6413598
8.6257324 8.3119841 -1.6897609
9.8049011 3.8406315 8.0028324
-3.8161943 -8.3864651 -1.0812286
3.6663527 1.3887812 6.0610919
2.1541088 6.035388 -5.4803762
-8.739501 6.2844462 -5.2690182
9.4701738 -7.4498901 5.3128901
-1.4683597 2.1738298 5.2536345
7.4048648 3.8528597 -6.709476
-7.8369474 8.7587175 -2.6779132
1.8826373 -8.4627447 4.3561201
6.5252743 -3.7901566 5.5727315
-1.7273436 -6.9872818 5.3933954
-2.5129516 4.0446906 -1.1166862
2.0636191 9.7935095 7.9428153
4.3797407 -6.2739248 -7.6259279
-4.1855354 7.8187532 6.4971271
-5.5906677 9.998024 1.3447299
-7.8781505 6.2376041 3.3958256
-1.3819476 7.674367 -5.2782598
2.7582912 -6.1665125 5.7896914
-8.0785437 5.1858988 -0.89866924
5.9311848 4.6364975 6.1783099
8.8452711 -7.4815249 8.5305147
1.7448915 2.1983707 -7.0860081
1.2888258 6.3966808 7.6639671
3.8612542 5.729661 -4.8579192
6.9867868 0.086779773 -6.9048524
7.3444118 -2.6147032 1.6142477
7.0858359 -3.2885332 0.12956101
4.0638366 3.385159 3.3161235
-2.9661014 5.158515 -6.5213423
3.8414769 7.1058488 1.4090402
-8.424058 -5.8443036 2.7203474
-0.095202751 -7.3271961 6.907649
9.6196461 -4.2637715 2.5443597
3.0707889 0.18229483 6.8703012
9.6353569 -5.0085006 9.9362288
5.1571875 2.3006854 7.9657297
-7.6163197 4.2763119 9.9176712
-9.9467888 -4.6394472 8.9325638
0.84460521 6.7817273 6.8228383
-0.61063528 -1.622014 -5.2049794
-8.4510393 0.87753344 -4.7849631
-6.5407023 -9.4240475 7.6864085
4.897336 -2.766892 2.5418215
-5.2851744 -2.5674295 -2.6670008
1.1636834 -0.79872334 -5.5985646
8.1855431 2.3548923 7.4514642
-9.9284029 5.4862294 -2.8710468
9.7836914 1.0565386 5.5122066
-3.0748172 9.9534426 -5.2686334
-5.3780918 -7.0877199 5.5969057
8.5963945 -9.8595953 7.2632465
-1.4351722 -9.5502043 6.0803256
-3.4752369 8.5640345 9.488595
1.1402063 0.039060783 -3.3222258
1.7031964 1.0164361 4.4451828
-5.8568692 6.3422689 7.1494484
7.1864452 3.8856719 -6.55407
-8.2777796 -6.6542687 -4.2018428
3.8368871 9.3922701 6.6047378
-1.8597285 -9.3067598 -1.9207093
-6.8743024 -8.7302122 -2.7762754
6.3177066 -5.2620368 9.7896185
-0.21030778 1.1776174 -8.9773684
-6.2332602 -7.9774394 -4.4765954
3.9829924 -9.9279461 7.3996515
8.2440109 1.0169768 3.5793915
-6.9164667 -9.270195 -6.0314221
-5.7666516 -2.4437358 -5.0918131
-3.8113825 -5.9098511 -4.7415295
6.5151458 -4.5104365 2.1765063
-2.438118 -8.4430513 -9.2281723
3.1642065 -5.6506071 8.6921597
-9.8346558 8.3919144 -1.2988638
-2.1120896 4.5492239 -1.5473002
9.2396116 -0.82881993 3.7940092
-9.8174009 -7.1721182 -0.56195337
6.585834 4.007616 -9.7966518
-4.0957007 -0.03653973 -6.3931117
-3.0336306 2.2953491 4.0854936
-1.6666541 5.9190907 7.2743216
3.3133748 0.47187123 -3.2559152
-7.1373391 -7.6968169 9.3543015
0.068458624 3.2719731 -2.2957237
-7.0815568 6.5388427 -0.49577668
-0.19243047 -8.087492 9.7740965
1.7297708 1.7300049 7.1412549
6.9234524 -1.5201409 -3.8633523
-9.5214281 5.7497845 -3.2320862
0.88719577 -7.7668533 9.4449692
7.217937 -7.9707675 -8.7724495
-7.797976 -9.7081003 -0.065964758
-8.3171825 7.8086786 9.6751156
2.275372 -5.4098754 -1.2482394
-3.785578 5.7328801 -6.7611117
2.2175822 -4.8715887 -5.5639029
-4.0123405 2.1146374 -4.3294578
1.9496329 9.5748243 -3.5734885
-6.7265368 -4.9977417 4.2885833
7.4665895 -9.8483677 2.8414865
-6.8858476 2.141912 7.2350011
1.251364 0.74195307 -9.2524538
7.0646749 -2.8696165 6.523036
-4.7146587 9.9180384 2.963819
1.1727343 -3.8918381 5.5581532
-0.35636154 -1.822076 6.73669
-1.0833168 -6.2670283 -0.44731557
[...]
POINT_DATA 1000
SCALARS solution float 1
LOOKUP_TABLE default
165.61647
113.06545
117.68797
101.97952
76.538185
87.436996
49.619392
33.90456
75.395073
102.32301
127.09713
88.474716
124.24561
42.62254
121.68284
84.79303
110.76267
179.50777
116.02343
105.04157
80.104286
19.032806
85.54969
17.540415
202.3999
41.508835
128.47646
63.334213
57.403522
62.970001
31.655891
46.308224
80.202042
128.75241
108.60867
131.02657
75.838531
39.902485
105.86961
73.715721
66.070358
118.46029
140.0309
90.596825
102.91112
100.59491
145.06783
59.115501
92.010056
196.86018
82.544365
169.58975
39.98605
96.076103
98.630959
25.13117
64.802155
71.762299
84.896233
143.30962
195.32932
120.21442
81.739128
129.60542
94.38974
124.39116
46.630314
116.50298
80.152016
146.01337
86.463074
141.52231
48.043411
141.36327
56.505207
210.16454
69.292816
72.39727
144.08595
11.113479
104.29068
101.15502
36.444057
124.26035
65.305084
121.94843
175.32964
103.32928
136.63878
29.292309
187.10446
29.478832
66.231941
71.339279
71.256989
169.12137
173.31299
70.4039
171.23848
115.27158
39.566673
46.15955
43.556263
73.857079
155.36829
82.097527
143.38417
129.6167
82.526878
144.14622
66.510696
144.21292
113.67675
4.7000208
134.71538
191.92749
70.304268
66.037735
81.178963
100.07417
20.665403
33.240997
46.569611
99.291519
66.395493
74.723747
134.63354
74.555405
32.057144
77.113068
151.61432
111.86666
47.00721
100.85639
78.809677
70.601181
89.482124
115.75661
45.595837
146.14894
44.366985
55.369907
5.9541707
142.34341
61.082684
102.87
44.614006
20.396721
117.22151
68.97403
103.21745
18.522192
97.04644
140.47099
80.044632
84.468666
55.938789
182.53133
105.52088
46.217094
102.63646
139.71336
74.725616
56.455086
63.280834
162.53445
18.183786
118.19275
111.43322
63.576324
198.33366
35.113071
163.4053
176.65431
44.965523
208.77611
126.63026
101.08801
58.920719
154.14221
191.76314
91.230507
181.31253
46.369167
17.413235
78.805801
236.54375
11.18876
130.72572
135.04396
53.98502
159.61862
103.42374
138.58418
104.64573
98.061035
5.0874028
107.19749
188.27788
114.73228
150.3109
98.371262
144.02513
118.08833
104.20872
127.32549
147.24615
174.82211
87.720818
49.963379
72.849556
140.9052
170.88176
36.608353
116.36404
146.58362
89.957497
87.64138
79.325722
20.202667
163.88324
115.86764
120.76121
133.0842
114.42128
88.763252
77.812019
96.369255
92.609268
206.96107
55.381527
102.32809
70.838867
95.941505
64.27124
62.494541
37.302349
76.401093
65.489899
110.0651
103.01324
117.19647
53.940506
216.79321
92.749695
175.45482
200.24092
90.936485
30.526354
96.719948
191.2182
38.603283
38.407238
32.120636
128.3869
136.60182
127.37842
136.27058
109.21648
223.85999
131.15439
174.91273
12.687717
22.480219
124.79063
110.42133
130.00214
147.00467
94.730339
133.57127
163.94966
80.236725
124.46716
169.20692
83.507339
169.18568
64.949799
69.727814
68.350349
161.68184
115.16514
168.78532
27.705696
100.61072
147.73297
155.11765
56.806171
30.849037
89.5308
18.976322
197.31535
16.323494
92.670097
161.06383
56.51186
62.029858
133.86818
151.19994
192.25317
156.61586
223.10004
32.576279
92.127808
59.951752
38.698147
107.39902
87.761963
161.15141
103.00806
85.908394
97.81562
129.44504
49.237225
47.884628
40.478138
110.37938
12.307724
81.867249
81.245415
64.681107
78.142525
97.981522
152.01538
78.447548
155.88103
137.31435
106.51312
108.75458
120.71014
113.64528
61.724133
49.81329
177.55664
193.55881
156.8645
122.43517
167.87767
141.27954
96.944496
132.52042
106.59488
70.429306
136.64323
179.7115
126.29828
125.26846
83.501869
128.51025
117.41178
130.86084
29.411751
66.579338
152.46687
200.65024
30.358053
79.454056
22.126091
167.80319
77.016891
145.40602
171.74881
129.43417
73.650772
8.827033
34.099686
122.39845
179.1991
45.994537
149.52957
122.53339
102.27224
84.771179
95.652702
75.555504
16.089767
167.16083
104.95206
65.428047
8.6084633
86.846947
24.60104
81.873871
109.90139
38.688084
61.008736
163.88475
65.102089
30.231531
84.019112
34.700314
106.10016
24.825485
56.417435
149.91508
98.445366
127.14141
164.40085
200.06316
96.032028
67.555954
167.7903
98.342201
113.19173
51.632591
38.341599
180.72046
108.48553
47.580303
124.00873
141.36444
131.79698
88.040482
145.68764
38.220055
129.20441
88.943161
159.56171
92.658089
175.86055
83.096291
223.63225
80.733025
158.88101
119.8093
7.8476353
104.9024
183.47768
137.57843
114.61276
47.954105
113.85756
157.92601
121.6085
64.563026
121.10365
68.703217
178.7654
120.34238
90.440704
176.88557
63.106232
176.08803
48.130646
121.0699
47.123566
156.57614
102.63956
61.526844
101.19266
181.38425
108.65643
112.70914
137.95932
75.585251
133.90034
85.230873
3.553364
60.395351
97.985519
61.491283
140.79301
6.5252872
92.466003
44.460449
76.114311
125.73772
64.780624
112.59042
82.908646
93.627647
70.501274
77.1194
64.122047
182.52345
124.86443
164.35533
111.15327
97.71447
99.964371
151.74272
85.22953
157.40361
70.387756
160.548
134.24522
43.060139
17.102879
97.30838
42.757145
87.904953
168.91872
107.51044
143.53639
123.29355
176.21521
74.341331
99.668915
100.8539
9.0163164
120.61109
80.274818
14.286345
148.23329
93.647499
147.571
53.31139
45.10873
53.089317
61.284763
122.50024
104.9493
102.67439
97.546082
104.95915
74.621872
90.165413
98.783089
220.8342
74.752747
92.444588
122.66057
142.84425
117.04297
115.10266
100.78349
74.073753
63.712879
119.64288
125.18368
145.21399
47.778637
136.38826
98.979279
80.872017
128.06805
74.924545
51.90453
147.15312
42.558498
128.01857
132.37166
40.065361
130.34035
101.12524
62.366764
116.22124
120.64236
56.772709
10.905592
118.78511
65.260239
207.49771
9.6692562
104.57965
127.15184
1.591296
58.646851
194.47017
101.25443
16.159851
120.80723
172.29077
94.23687
153.72751
65.37709
25.550051
22.628616
153.64725
96.960442
79.440529
154.84741
50.353455
33.215816
127.66634
126.39129
104.42966
234.90436
33.326878
56.530872
164.12624
95.138451
114.30256
131.84718
108.06937
53.017944
58.905766
70.592117
152.80786
155.85457
89.137733
208.45964
119.41245
63.259556
192.32567
78.665184
153.43983
120.52
21.013805
62.096844
23.277771
204.99388
112.77975
124.80102
71.390915
124.1352
94.053993
63.799252
71.610413
213.22256
30.029491
88.938293
187.75308
82.714783
58.080925
29.132547
22.013477
181.93987
135.91997
51.225918
161.50471
239.82945
81.703941
121.43751
137.92778
69.089439
138.50407
70.269989
161.93402
92.459694
77.44593
105.16669
115.07633
170.88188
29.319811
141.46584
106.64615
78.362671
22.521641
53.891106
119.34278
94.085037
45.277126
116.12399
19.504452
106.43905
70.606758
20.453217
147.67163
80.584114
48.271564
72.234482
17.085934
28.544779
119.704
153.28453
43.88768
129.67914
119.38692
113.63924
42.448296
85.320618
69.066261
227.39429
154.75668
67.600853
129.13724
43.642868
136.8701
93.289604
33.032043
57.600002
97.768555
8.9662666
177.09557
123.09235
26.908138
87.133774
102.86993
114.20559
141.47696
168.25929
14.926875
122.13043
78.849174
172.95435
66.409164
95.470795
188.24275
156.21712
32.403854
121.34422
36.977665
161.55238
157.14615
48.054802
79.723122
17.901054
101.62411
48.088799
34.308781
13.885555
111.583
48.648994
126.2005
118.44891
121.33916
70.19191
213.11624
94.221626
112.48708
166.40056
32.191196
85.737373
190.37262
106.831
248.43576
67.474716
136.60497
88.413307
103.0867
81.488075
104.00638
67.372444
105.89903
104.08785
65.915405
135.79785
114.41274
191.91147
174.06625
179.37099
199.49144
140.38503
53.283905
75.33503
45.321533
32.548725
215.15215
106.28245
96.170921
130.5072
151.35893
132.2117
226.80426
111.19086
163.18428
83.316162
1.5128365
36.387741
105.71469
113.06522
149.63112
76.101471
126.30563
96.388054
36.733829
59.904072
92.738045
173.54706
123.82934
193.7762
171.59842
130.98589
158.08234
193.2334
117.4167
101.37548
111.64941
58.827641
61.719688
107.16354
46.647015
152.46767
212.58614
92.65229
15.776732
105.68636
174.54269
94.061058
72.751717
109.36988
175.26199
9.950819
97.064026
64.544403
64.474922
156.2666
155.81541
143.86508
153.01378
26.096298
92.455307
109.65127
93.114075
81.962257
34.020969
70.193344
84.068199
140.57664
111.99936
137.99693
117.61067
31.817295
204.85574
85.22982
17.341814
218.64064
183.91029
59.503357
16.605009
96.424644
20.678082
139.90541
69.951401
38.647659
185.21169
56.614956
185.51683
46.486469
134.34036
15.270351
79.340317
78.85202
122.79247
84.745415
117.1786
36.309555
107.77077
79.071495
81.676994
82.809608
155.42537
17.128077
228.35829
56.410744
75.832184
130.19043
112.70844
59.223782
99.655182
6.3820257
105.10602
106.09344
47.10458
70.174812
214.86139
101.76426
64.45929
53.196232
92.170471
195.03474
132.58694
163.4389
67.611069
81.103134
150.96986
59.765343
111.7671
137.27287
163.31528
30.563835
4.3257194
46.166462
64.107971
146.29503
98.769463
180.10631
221.82788
100.64581
145.51253
116.90079
80.174744
76.58802
61.132645
8.855916
158.33932
271.46085
112.20147
162.52071
257.44983
102.36936
86.213631
158.12085
80.082207
87.19445
77.319519
68.684219
161.18802
115.70894
92.428703
22.222025
136.81464
145.77165
160.71678
77.405083
32.526669
88.385536
64.567749
153.35777
76.555069
89.568138
102.49468
34.3997
135.08037
98.158119
35.392109
138.29765
137.00708
205.15376
45.983421
108.89767
13.116003
186.24643
94.058731
122.28285
165.0773
14.925185
150.38121
89.882118
81.923584
124.529
68.015793
156.62631
88.017685
182.93236
107.53416
98.552963
138.38774
71.652245
15.078994
148.63748
80.88092
84.766052
98.736824
154.58694
54.414436
106.53886
110.95035
100.27571
121.29329
158.41057
64.548973
39.303276
90.862625
46.118641
93.85054
148.07878
33.122055
44.565804
62.497757
110.66528
181.97551
96.520493
23.353992
75.87915
67.725143
61.57872
75.057785
151.40643
149.20616
61.366333
99.766586
130.6467
167.37144
153.54961
73.844635
112.51027
15.732676
66.727509
92.92289
40.768105
72.974892
71.385078
175.66783
65.070587
90.448189
33.412277
65.046593
139.51221
6.5007153
72.807167
71.967316
149.50499
91.188416
78.312553
34.853672
124.49268
107.59413
131.41331
150.28868
96.500145
2.6872156
150.36887
40.052177
107.16755
97.773796
80.911102
90.190804
56.77449
78.432846
SCALARS std_error float 1
LOOKUP_TABLE default
1.1071059
1.0569733
2.0971901
1.4425942
2.1049428
2.3514712
2.3619604
2.4832852
2.2510889
1.9753814
1.730461
2.2392051
1.9755428
2.3966866
1.6526022
2.1684389
1.0777203
0.87259924
0.88242108
2.2645037
2.4528751
2.2858682
2.271121
2.4272363
0.59283656
2.3831737
1.9022628
2.1515787
2.5281546
2.1788182
2.6397293
2.3206782
2.3475635
1.6019611
1.9089564
1.7963768
2.5253656
2.5413451
2.3419669
2.0131414
2.468514
1.2390527
1.3749026
1.9889288
1.7841343
2.3245392
1.2088901
2.3155148
2.0569751
0.33365881
2.0714617
1.4915992
2.4265466
2.3106086
2.1701076
2.4376481
2.5022058
2.3292439
2.1232827
1.3496962
1.4919389
1.5809854
1.7646641
1.099895
2.1957486
2.1584885
2.4376488
0.80145371
2.2314792
1.3286915
2.2996109
0.89436001
2.1409879
1.68611
2.3396974
0.7877748
2.4532077
2.422302
0.99298555
2.4729412
0.26826882
2.1429019
2.3567028
2.0689635
2.4910462
1.4139323
0.97738844
1.0064439
1.0080438
2.5998559
0.89031661
2.4353838
2.4364932
2.233952
2.4778774
0.78051424
0.98430061
2.1544988
1.6885241
1.8307427
2.4939845
2.5500433
2.4133801
1.9724854
1.7498722
2.2004523
1.6657085
1.3692323
2.3214238
0.57846862
2.0338237
1.4502519
1.4699929
2.3408141
1.1419921
0.61856169
2.366827
2.5097861
1.6680198
1.9757942
2.4691989
2.6420147
2.4990253
0.86308032
2.4818449
2.1049676
0.9436357
1.8360889
2.6320441
2.2035038
1.3067344
1.8889599
2.2982659
1.4317789
1.7931073
2.437037
1.7714401
1.804418
2.584615
2.1701646
2.4947193
2.3441339
2.3935399
0.93116444
2.6390579
2.130986
2.2008059
2.5463891
1.8485363
2.4848819
2.547786
2.3617339
1.3933178
1.6047299
2.0230954
2.2755561
2.4474065
0.82416451
1.9700627
2.4226367
2.1588953
2.0522926
2.0971797
2.4416847
2.4346046
1.3847634
2.5864184
1.1389056
0.97412026
2.4118788
1.3038316
2.3806026
1.3691032
1.599329
2.4373846
0.7856856
1.1340492
2.0313642
2.3784604
1.3676161
1.1469065
2.0113735
0.8092308
2.3284028
2.4636452
2.1215861
0.35849667
2.4137864
2.2710195
1.5876374
2.1388919
1.3199198
2.2089367
0.94306779
2.3340752
1.8618165
2.2855494
0.43999895
0.85765529
1.1538182
1.5756782
1.9269993
1.3234097
1.6961989
1.9854597
1.9434181
1.3839896
0.67770028
1.9205405
2.5520623
2.3802359
1.8246859
1.2759203
2.3854527
2.0928624
1.50064
2.0955575
2.4520042
2.3895111
2.593667
0.61498725
2.1751342
2.1926513
0.026955219
1.855271
2.0840743
2.3165462
1.7447997
2.4695477
1.4323689
2.2785642
2.0866659
2.5584841
2.1652908
2.2146533
2.3410444
2.6128883
2.4357512
2.280906
1.9646302
2.0295911
0.99839967
2.398654
0.19242975
2.1629689
0.33915895
0.24994773
2.3708942
2.3028438
1.7321267
1.1590929
2.3746138
2.43694
2.3848774
1.9102412
0.48091069
0.74262398
0.45894435
2.3697309
0.52270442
1.0749729
1.041187
2.3909106
2.4998095
2.361939
2.2599363
1.8993573
1.2382261
1.2182739
1.5132557
0.72301263
1.6594435
1.9198411
0.39289823
1.9173954
1.4391111
2.4756434
2.3799887
2.2299287
1.2303681
2.0193167
0.66073322
2.3915374
1.4781631
0.66286325
0.80584055
2.4376757
2.4412298
2.218734
2.7635398
1.2812048
2.557339
2.1986458
0.64211857
2.3411334
2.5025799
1.1696606
1.1343392
1.5178008
0.6828841
0.99067706
2.6017768
2.4393871
2.4261022
2.5592625
1.2430551
2.3765626
0.55413479
2.2319713
1.5265411
2.2695432
0.41778722
2.3602178
2.2074041
2.3065591
1.2298865
2.4875803
2.3066776
2.4296668
2.3159318
2.4954438
2.0003245
1.2956131
2.3131199
1.1232988
2.0140197
1.2593387
2.3811707
2.0397818
0.73310453
1.9998235
2.4669302
0.81183553
1.4249268
1.9621865
1.5201647
1.4980407
1.1720949
2.004379
1.1356237
1.3148911
2.0136271
2.1227541
0.92190647
0.8512193
1.9621251
2.329227
1.7979735
1.7664329
1.9495848
2.5901632
2.3286109
0.25354132
1.4418244
2.4831955
2.3279505
2.4638057
1.7103769
1.8897237
0.62620723
1.0870612
1.4085102
2.2085409
2.4527855
2.6339548
1.7909237
1.613821
2.4731648
1.3953023
0.72721714
1.4925157
1.9024456
1.5698771
1.8547827
2.4478278
1.1820529
0.98987311
2.2883451
2.413774
1.25283
2.4849122
1.8320464
1.8844284
2.3606892
2.2930632
1.4548043
2.5655439
2.3174858
2.1425056
2.4760988
1.4728317
2.3696079
2.231437
1.2227486
1.1968362
1.0981628
1.6253189
1.3855947
1.9041536
2.0370896
0.90146601
2.0561118
1.7268097
2.4341369
2.1315513
0.69325417
1.4646872
2.1338263
1.8908806
2.1561916
1.9449282
1.6092764
1.7078252
2.4853082
1.8478926
2.3931065
1.4637089
2.085206
1.0601807
1.5856706
0.43137833
2.2851758
1.3398211
1.8779423
2.5552349
1.3394384
1.5295858
2.2206142
0.53377002
2.4839141
2.0508485
1.1870141
1.6547463
2.3087432
0.96190041
2.2829034
0.35333657
2.2312317
2.4418647
0.10080058
2.3465202
0.74962848
2.4368315
1.3575946
2.4309955
0.74715549
2.1786861
2.5570946
2.1561229
1.5147871
1.8884444
2.1461201
1.0948753
1.9436545
1.5888863
2.4630592
2.5441628
2.4431305
1.8663841
2.416503
1.7450806
2.2832739
2.4864783
2.5459106
2.1907537
2.0708251
1.9414872
1.7458924
2.4085112
0.87681562
2.4635732
1.6022583
2.5687594
1.6113458
1.9735825
1.2652862
1.5533869
1.6330644
2.0299244
1.2547005
2.3567231
0.40415978
2.4198706
1.4494592
1.5253508
2.4461648
2.4880667
0.99181658
2.3481586
2.4600255
1.402667
1.8067912
1.5198361
0.60130686
0.72180492
2.3463895
2.1533718
1.9367374
2.430691
1.8039817
2.2846386
2.5006118
1.4750527
1.5002253
1.2651887
2.3655641
2.396302
2.3341172
2.5526328
2.0598328
1.1120974
2.1556458
2.464304
1.0172909
1.9448605
2.0479617
1.92084
1.0001612
2.3077633
2.4508042
1.5602704
1.1751736
2.0394437
0.64941853
2.4597743
2.0064955
2.2011824
0.96328872
1.9021635
1.7241393
2.4748137
0.32927424
1.7162652
2.2158062
1.7201774
2.3953521
2.3767998
1.4343731
2.4563839
1.0117991
0.93382794
2.4477634
1.7262959
0.29605857
2.0836859
1.6611751
1.8583019
2.3348203
2.3639245
1.6597985
2.1945307
0.7510336
2.3704708
0.70730907
1.2315165
1.7857641
2.3327451
1.1816428
1.6666189
2.4533658
2.0448275
0.97109586
2.2437978
1.6021632
2.2536964
2.5846372
2.4952188
1.2858299
1.756776
2.0945971
1.5849553
2.1836176
2.5798609
1.802853
2.1035933
1.2669513
0.19636144
2.6314497
2.3538892
0.55979353
2.2497952
1.3820308
1.5439327
2.2083976
2.4100974
2.5193441
1.9576441
1.2406847
1.7074202
1.8309522
0.53794736
1.1393397
2.2425718
0.38116083
2.4157174
1.3434933
1.5068375
2.4750893
2.4503577
2.5597718
0.72637802
1.9939888
1.8007087
2.483918
1.8340536
1.7620591
1.9958075
2.3944302
0.72084779
2.2878885
1.647817
1.2386709
2.263397
2.3769567
2.6168144
2.470259
1.6354909
0.70015055
2.4791553
1.5504994
0.018752333
2.1174133
0.56889999
1.4117324
2.3008251
2.1076937
2.5509977
1.331441
1.2226424
2.303772
2.348238
1.897163
1.1010954
2.5251205
1.6779627
1.2620569
2.1969879
2.3931112
2.3792222
2.0955892
2.0526874
2.3256733
1.9874917
2.4598012
2.175571
1.9222946
2.432714
1.7010924
2.4720483
2.343504
2.0931172
2.7621918
2.4830527
2.082974
1.0744076
2.4576581
1.713699
1.8754655
1.3280712
2.4035366
2.2749364
2.1730788
0.96710676
1.370676
2.4854743
1.2424594
2.3276372
2.0668931
2.0862205
2.4924982
2.1649704
1.2879664
2.5515823
1.3531855
1.7451564
2.4482565
2.1300044
2.1732423
1.342025
1.9063003
0.86791486
2.3728144
1.933071
1.7120067
1.4956148
2.1114144
1.14652
0.40717259
1.9743084
2.3337259
0.48663962
2.4729238
1.1315079
1.2243741
2.2907031
2.3230498
2.5341632
1.7142434
2.5428183
2.3697472
2.2525499
1.6009055
2.3947921
1.2540729
2.0126536
0.4985092
2.133383
1.0638419
1.0623559
1.9351509
1.3653499
2.4287639
1.9666711
0.76951599
1.836594
0.51867735
2.5409658
1.9406623
1.9245328
2.3426085
2.4154234
2.2919822
2.6034195
1.468266
2.1762671
2.3094718
2.2577598
2.2506635
0.28368747
1.6514703
1.0036219
0.52407646
0.69971514
2.565047
2.4860289
2.4152369
2.4590886
0.51186383
1.2470223
2.1638234
1.4817287
0.97800779
2.0208118
1.3423767
1.153795
1.2835232
1.4875907
1.8239791
2.4736412
2.1848989
1.6806871
0.89052939
2.285908
1.9222616
1.1167248
2.4749184
2.3014541
2.2256219
0.70136058
2.0846322
0.51853049
1.3344473
1.9355747
1.8435133
1.5324916
2.1293728
2.2219443
0.63486367
2.4761264
2.3142736
0.63186401
2.5836575
0.93413728
1.4010286
2.3343008
2.3803318
1.3343711
1.3805707
1.5903925
2.3063064
0.71077877
0.83466452
2.3703039
1.5328071
2.5412831
2.5153277
1.1611984
1.0805279
1.9065429
1.2703776
2.5526731
2.1015332
2.0088561
2.1337531
1.8050776
2.5284734
2.5313492
2.116019
1.5733479
1.2750992
1.6806484
1.5298533
2.3922787
0.68354207
2.5202007
2.6523857
1.0937771
0.9433369
2.2338274
2.5667105
1.8281467
2.5496974
1.9402158
2.3516006
2.3122864
1.3204494
2.3619328
1.4131746
2.3209934
1.7266352
2.3491924
2.0258768
1.9953018
1.480296
2.0497916
1.8678722
2.6074667
1.2149177
1.9589663
2.350704
2.2929704
1.5537733
2.3073163
1.1096723
2.5033782
1.8634582
1.7431877
1.8960402
2.4498801
1.761732
2.3075874
1.7482134
1.8946197
2.6576879
2.2358966
0.22762512
0.85290545
2.042177
2.4084396
2.1761048
0.9831633
2.232146
1.2388448
2.236062
2.3927162
1.7075627
2.4872763
1.5317736
0.9600119
1.8560479
2.3531861
2.4345202
2.4253232
2.2021487
1.3898399
1.0925325
1.0783796
0.29004961
1.1299357
0.8528102
1.8836217
2.4388156
1.8815591
2.5097351
2.2856786
1.8663268
0.25786886
0.85658693
1.8870496
0.25249869
1.6008745
2.029525
0.84712231
1.6090997
2.2355728
2.4493103
2.2829316
1.8944213
1.7211417
1.0953394
2.3647151
1.2608068
0.63350004
1.546573
1.9929264
2.1916118
2.2270031
2.0332732
1.7924119
1.8277465
2.3772936
1.7124479
2.3920228
1.634418
1.7200441
2.4329751
2.0393381
1.9588093
0.67798644
2.451174
1.8659334
2.2735162
0.31474191
1.8360351
2.2155476
1.2402102
2.4074886
1.8618795
1.5124135
2.6134272
1.5768266
2.2375143
0.66747981
1.8360987
1.3033389
1.1553929
2.4499278
1.6510577
1.837057
2.3509567
1.3105245
2.4186766
2.0733538
2.1579609
1.5178484
2.4899936
1.7557191
0.48865646
2.571054
0.2962105
1.3977277
2.2635577
2.5242674
2.0366218
2.2696171
2.206001
1.2526711
2.6111438
2.5593286
2.3492451
0.008634517
0.30328611
0.90143323
2.5161026
1.9715208
1.8927917
2.4578621
2.4619353
1.9914933
1.0170705
2.2833123
1.7876439
1.8721988
0.52513355
1.8218532
2.3897052
2.0075707
2.4810107
2.3614652
1.749941
2.4853485
1.9377429
2.4886134
0.70903915
2.2499695
2.1477783
2.3519285
2.5057764
0.76323295
2.3783464
2.2820492
2.2682128
1.5349468
2.3010223
2.4576216
2.5877762
1.8984594
1.779763
2.1880801
1.0799711
2.145376
2.2577753
1.4296552
2.4190559
2.0687265
2.1383648