# vtk DataFile Version 3.0
Zombie mixed Neumann point cloud
ASCII
DATASET POLYDATA
POINTS 100 float
-0.07506531476974487 -0.1366056501865387 0.013173379935324192
-0.18293996155261993 -0.20639638602733612 0.06558236479759216
0.09583643078804016 0.09216699004173279 0.19822871685028076
0.1591605842113495 0.09826190024614334 0.11652194708585739
0.10269244760274887 0.12208790332078934 -0.05031920224428177
0.14439241588115692 -2.7702202714863233e-05 0.07889033108949661
-0.12465598434209824 0.08890583366155624 -0.01456206850707531
0.08200465887784958 0.04023904725909233 0.028529653325676918
-0.0778198093175888 0.20467576384544373 0.01808490790426731
0.11640900373458862 -0.05392855033278465 -0.05519641190767288
-0.024133354425430298 -0.06471198052167892 0.07648530602455139
-0.1584019809961319 -0.11380434036254883 0.19409632682800293
0.0007200341206043959 -0.14171835780143738 -0.0884585753083229
-0.14046023786067963 0.14856645464897156 0.1384280025959015
-0.1206522136926651 0.17885059118270874 -0.16934892535209656
0.0637979730963707 -0.08200834691524506 -0.1477341204881668
0.15128476917743683 0.11837466061115265 0.016481446102261543
0.022057928144931793 0.11560583859682083 0.16248227655887604
0.13354404270648956 -0.11191084235906601 -0.20141087472438812
-0.04161341115832329 -0.012219387106597424 0.0910630077123642
0.19378411769866943 0.09193441271781921 -0.1564999222755432
-0.1123039722442627 -0.19054430723190308 -0.18700656294822693
0.1535661816596985 -0.02779868058860302 -0.1130300909280777
0.21674641966819763 0.17043240368366241 0.019389159977436066
-0.06580307334661484 -0.15572476387023926 0.1974000781774521
-0.10688965022563934 0.16368220746517181 -0.08726558834314346
-0.06359004229307175 0.15462380647659302 0.10946021974086761
0.11219200491905212 0.19136302173137665 -0.18980629742145538
-0.16002951562404633 0.17696674168109894 -0.1676093488931656
-0.10848454385995865 0.13522782921791077 0.16339506208896637
-0.10352464020252228 -0.0028979198541492224 -0.20320576429367065
-0.21320457756519318 -0.17474134266376495 0.04747423529624939
0.17252562940120697 0.030402569100260735 0.19249720871448517
0.027300415560603142 -0.045677173882722855 -0.1252017468214035
0.1899132877588272 -0.16647914052009583 0.08276353776454926
0.05740907043218613 0.05477408319711685 -0.16443488001823425
-0.1121973767876625 -0.017488673329353333 0.026444241404533386
-0.1379510462284088 -0.05513591691851616 0.07388915121555328
-0.1794629544019699 0.08458876609802246 0.11655347794294357
-0.05516524612903595 -0.0018036507535725832 -0.03593955188989639
-0.18875624239444733 0.0516912080347538 -0.10600894689559937
-0.18594114482402802 -0.20465236902236938 0.0457155741751194
0.12833258509635925 0.13424445688724518 0.2074701488018036
-0.13572043180465698 -0.20464541018009186 0.17213666439056396
-0.039453066885471344 0.20196683704853058 0.19502028822898865
0.013522762805223465 0.10355732589960098 -0.056043367832899094
0.060981400310993195 0.008101502433419228 0.1518663465976715
0.023005817085504532 -0.2146977186203003 -0.13387884199619293
-0.12181497365236282 0.11394257098436356 0.12134687602519989
0.07801305502653122 -0.08576802909374237 -0.11257121711969376
-0.02464437112212181 0.11115182191133499 -0.15425103902816772
0.030256478115916252 0.027019716799259186 -0.04045914486050606
0.047267552465200424 -0.21948859095573425 0.09831839054822922
0.02620573155581951 0.02842363528907299 0.015358532778918743
-0.10045620054006577 -0.11330053210258484 0.08179370313882828
0.08356169611215591 -0.11029141396284103 -0.12391968071460724
-0.2120017409324646 0.03736439719796181 -0.049930959939956665
-0.0791410282254219 0.1992880254983902 -0.01132095605134964
-0.14859721064567566 -0.21049337089061737 0.2105771005153656
0.0786357894539833 -0.1354735791683197 -0.13299551606178284
-0.2002491056919098 0.11602981388568878 0.10726416856050491
-0.19555234909057617 -0.04300818592309952 -0.17574310302734375
-0.21581393480300903 0.14012767374515533 0.21435002982616425
-0.0830676406621933 0.006999379023909569 0.11028484255075455
-0.05148066207766533 -0.2066558599472046 0.00040743921999819577
-0.1416575014591217 -0.031062211841344833 -0.0790930986404419
-0.0725710391998291 0.11917074024677277 -0.20260874927043915
-0.07852806895971298 -0.08844806998968124 0.04731917753815651
-0.13949644565582275 -0.21577025949954987 -0.15623219311237335
0.17243175208568573 0.1490897536277771 -0.061233311891555786
0.14297494292259216 -0.07498958706855774 -0.0028536401223391294
0.21269308030605316 0.1892176866531372 -0.1857268512248993
-0.014204994775354862 -0.13889382779598236 0.09952415525913239
0.12294748425483704 -0.014803599566221237 -0.08264300227165222
0.03761793300509453 -0.09456625580787659 0.21552851796150208
0.21524128317832947 0.15268635749816895 -0.20895546674728394
-0.062482595443725586 0.1659640669822693 0.073890820145607
0.03333934769034386 -0.20864138007164001 0.11490847915410995
-0.04088428243994713 -0.007817788049578667 -0.13769493997097015
-0.0920625850558281 -0.04016411677002907 -0.20889979600906372
0.19024616479873657 -0.16206350922584534 -0.19485802948474884
0.18765664100646973 0.13541245460510254 -0.12879052758216858
-0.1736600548028946 0.016245028004050255 -0.049460750073194504
-0.12202873826026917 -0.0860648974776268 0.07033847272396088
-0.20700621604919434 -0.13651251792907715 0.21957561373710632
-0.062407176941633224 0.08096374571323395 -0.11907224357128143
-0.04572553560137749 -0.012314412742853165 -0.07338415831327438
0.016685988754034042 -0.181162029504776 -0.08260689675807953
-0.1348813772201538 0.20310141146183014 0.05128169059753418
0.030086679384112358 -0.1977597177028656 -0.06251675635576248
-0.15538519620895386 -0.0005670454120263457 0.18371814489364624
-0.09472714364528656 0.029711216688156128 -0.07413049042224884
0.06094290688633919 -0.16822369396686554 -0.005193329881876707
0.2198725789785385 0.06338343769311905 -0.09816482663154602
-0.16544924676418304 0.01583719812333584 -0.01853548176586628
0.15058216452598572 0.21053436398506165 0.030692974105477333
-0.028379689902067184 0.057104527950286865 0.04800588637590408
0.12218693643808365 0.1511181890964508 -0.03176334872841835
-0.17359305918216705 0.13906772434711456 -0.1973094791173935
0.20990519225597382 0.09881704300642014 -0.1217145025730133
VERTICES 100 200
1 0
1 1
1 2
1 3
1 4
1 5
1 6
1 7
1 8
1 9
1 10
1 11
1 12
1 13
1 14
1 15
1 16
1 17
1 18
1 19
1 20
1 21
1 22
1 23
1 24
1 25
1 26
1 27
1 28
1 29
1 30
1 31
1 32
1 33
1 34
1 35
1 36
1 37
1 38
1 39
1 40
1 41
1 42
1 43
1 44
1 45
1 46
1 47
1 48
1 49
1 50
1 51
1 52
1 53
1 54
1 55
1 56
1 57
1 58
1 59
1 60
1 61
1 62
1 63
1 64
1 65
1 66
1 67
1 68
1 69
1 70
1 71
1 72
1 73
1 74
1 75
1 76
1 77
1 78
1 79
1 80
1 81
1 82
1 83
1 84
1 85
1 86
1 87
1 88
1 89
1 90
1 91
1 92
1 93
1 94
1 95
1 96
1 97
1 98
1 99
POINT_DATA 100
SCALARS solution float 1
LOOKUP_TABLE default
-0.20358219742774963
-0.3236572742462158
0.3960283100605011
0.35473546385765076
0.17812283337116241
0.2310372143983841
-0.08399634808301926
0.10200633108615875
0.13852527737617493
-0.025111986324191093
-0.024636583402752876
-0.0720333531498909
-0.24591153860092163
0.13404102623462677
-0.10691742599010468
-0.1430482715368271
0.26397737860679626
0.2759121060371399
-0.17697449028491974
0.0210794135928154
0.13398811221122742
-0.49443185329437256
0.013684041798114777
0.4102894067764282
-0.0211305171251297
-0.052594855427742004
0.170914426445961
0.11527185887098312
-0.15532764792442322
0.18328334391117096
-0.3121165931224823
-0.3346603810787201
0.39445021748542786
-0.15515980124473572
0.10489597171545029
-0.06828287243843079
-0.1201140508055687
-0.1390828788280487
0.013967007398605347
-0.1128225177526474
-0.23941053450107574
-0.3428173363208771
0.47339752316474915
-0.17071017622947693
0.35925182700157166
0.03065435402095318
0.23472513258457184
-0.3256857097148895
0.08927951753139496
-0.13071973621845245
-0.09050238877534866
-0.017032483592629433
-0.07367666065692902
0.020319772884249687
-0.1048291027545929
-0.15205775201320648
-0.22569912672042847
0.08925844728946686
-0.14892612397670746
-0.18579235672950745
0.01833096705377102
-0.4074211120605469
0.1395251750946045
0.03138729929924011
-0.24896900355815887
-0.25266849994659424
-0.16141080856323242
-0.13922914862632751
-0.5110291838645935
0.2714024484157562
0.059709332883358
0.21306748688220978
-0.06597257405519485
0.04090261831879616
0.16020286083221436
0.15878909826278687
0.14810602366924286
-0.06446968019008636
-0.1828591376543045
-0.34539633989334106
-0.1559157371520996
0.18694987893104553
-0.220233753323555
-0.1435396671295166
-0.123578742146492
-0.11983373016119003
-0.139986053109169
-0.25102534890174866
0.10976706445217133
-0.22329680621623993
0.03224804252386093
-0.13870617747306824
-0.11105857789516449
0.18521448969841003
-0.15446393191814423
0.38776832818984985
0.012550906278192997
0.22306028008460999
-0.22909411787986755
0.18413536250591278
SCALARS exact float 1
LOOKUP_TABLE default
-0.19849758502095938
-0.3237539827823639
0.3862321376800537
0.3739444315433502
0.17446114867925644
0.22325504476793867
-0.0503122191876173
0.15077335946261883
0.14494086243212223
0.007284041494131088
-0.01236002892255783
-0.0781099945306778
-0.2294568989891559
0.14653421938419342
-0.11115054786205292
-0.16594449430704117
0.286140875890851
0.30014604330062866
-0.17977767437696457
0.037230209447443485
0.12921860814094543
-0.4898548424243927
0.012737410143017769
0.4065679833292961
-0.024127759039402008
-0.030473031103610992
0.20049398392438889
0.11374872922897339
-0.15067212283611298
0.1901383474469185
-0.30962832435034215
-0.34047168493270874
0.3954254072159529
-0.14357850514352322
0.10619768500328064
-0.052251726388931274
-0.10324180871248245
-0.11919781193137169
0.021679289638996124
-0.09290844877250493
-0.2430739812552929
-0.344877939671278
0.470047190785408
-0.16822917759418488
0.3575340583920479
0.061036720871925354
0.22094924934208393
-0.3255707435309887
0.11347447335720062
-0.12032619118690491
-0.06774358823895454
0.01681705005466938
-0.07390264794230461
0.06998789962381124
-0.13196302950382233
-0.15064939856529236
-0.22456830367445946
0.10882604122161865
-0.14851348102092743
-0.18983330577611923
0.023044876754283905
-0.41430363804101944
0.13866376876831055
0.03421658091247082
-0.2577290828048717
-0.25181281194090843
-0.15600904822349548
-0.11965696141123772
-0.511498898267746
0.26028819382190704
0.0651317157316953
0.21618391573429108
-0.05357466731220484
0.025500882416963577
0.15858019515872002
0.15897217392921448
0.1773722916841507
-0.0603935532271862
-0.18639701046049595
-0.3411264978349209
-0.1666753739118576
0.1942785680294037
-0.20687577687203884
-0.1377551630139351
-0.12394312024116516
-0.10051567479968071
-0.13142410665750504
-0.2470829375088215
0.11950172483921051
-0.23018979467451572
0.027765903272666037
-0.13914641737937927
-0.11247411696240306
0.18509119004011154
-0.16814753040671349
0.3918095026165247
0.07673072442412376
0.2415417768061161
-0.23183481395244598
0.18700773268938065
SCALARS abs_error float 1
LOOKUP_TABLE default
0.0050846124067902565
9.670853614807129e-05
0.009796172380447388
0.019208967685699463
0.0036616846919059753
0.0077821696304454235
0.033684128895401955
0.048767028376460075
0.006415585055947304
0.03239602781832218
0.012276554480195045
0.006076641380786896
0.016454639611765742
0.01249319314956665
0.004233121871948242
0.02289622277021408
0.022163497284054756
0.02423393726348877
0.0028031840920448303
0.016150795854628086
0.004769504070281982
0.004577010869979858
0.0009466316550970078
0.0037214234471321106
0.0029972419142723083
0.022121824324131012
0.029579557478427887
0.001523129642009735
0.004655525088310242
0.006855003535747528
0.0024882687721401453
0.0058113038539886475
0.0009751897305250168
0.011581296101212502
0.0013017132878303528
0.01603114604949951
0.016872242093086243
0.019885066896677017
0.007712282240390778
0.019914068980142474
0.003663446754217148
0.0020606033504009247
0.0033503323793411255
0.0024809986352920532
0.0017177686095237732
0.030382366850972176
0.013775883242487907
0.00011496618390083313
0.024194955825805664
0.010393545031547546
0.02275880053639412
0.03384953364729881
0.0002259872853755951
0.04966812673956156
0.02713392674922943
0.0014083534479141235
0.0011308230459690094
0.019567593932151794
0.0004126429557800293
0.004040949046611786
0.004713909700512886
0.006882525980472565
0.0008614063262939453
0.0028292816132307053
0.008760079246712849
0.0008556880056858063
0.0054017603397369385
0.019572187215089798
0.0004697144031524658
0.011114254593849182
0.005422382848337293
0.003116428852081299
0.012397906742990017
0.01540173590183258
0.001622665673494339
0.0001830756664276123
0.029266268014907837
0.004076126962900162
0.0035378728061914444
0.004269842058420181
0.010759636759757996
0.007328689098358154
0.013357976451516151
0.0057845041155815125
0.00036437809467315674
0.019318055361509323
0.008561946451663971
0.00394241139292717
0.009734660387039185
0.006892988458275795
0.004482139251194894
0.00044023990631103516
0.0014155390672385693
0.00012329965829849243
0.01368359848856926
0.004041174426674843
0.06417981814593077
0.01848149672150612
0.00274069607257843
0.002872370183467865
SCALARS mean_steps float 1
LOOKUP_TABLE default
174.25
27.015625
67.44140625
164.8828125
307.21875
245.1796875
802.296875
966.890625
290.59375
277.90234375
419.62109375
20.71484375
132.23828125
266.6484375
76.7421875
182.953125
307.41015625
284.36328125
43.61328125
625.76953125
36.27734375
28.12109375
141.17578125
16.3984375
52.92578125
451.03125
494.55078125
59.60546875
90.5625
171.69140625
43.96875
17.828125
45.1015625
308.1953125
36.42578125
221.69921875
488.16015625
214.8828125
156.09765625
946.8203125
101.16796875
42.34765625
43.09765625
27.73828125
26.38671875
1195.46484375
236.921875
16.93359375
356.4609375
117.25390625
252.98828125
1070.97265625
7.79296875
1719.98046875
165.97265625
117.48046875
80.94140625
540.984375
15.0625
78.62109375
116.234375
70.328125
20.953125
468.859375
44.296875
261.4609375
83.44921875
300.3046875
15.17578125
133.28125
175.28125
32.109375
118.62109375
271.2578125
25.6171875
16.30078125
806.4609375
27.78515625
276.5625
42.37890625
27.99609375
53.09375
222.3125
180.73828125
7.4453125
523.1328125
524.2890625
92.08984375
155.85546875
67.67578125
76.30078125
737.41796875
95.33203125
3.7109375
379.06640625
64.9296875
1891.2578125
244.875
28.296875
42.66015625
SCALARS std_error float 1
LOOKUP_TABLE default
0.0120998529231889
0.004425410140841397
0.005688654427142105
0.010249242900077112
0.011943248149193281
0.011288186823275854
0.009170441381096534
0.012448970983500644
0.004835204776565515
0.012473340261614453
0.013137811844632957
0.005372898688540503
0.011207550053980187
0.008556355762518123
0.006930138852544424
0.011903213765813488
0.01139264495521163
0.01082360102115371
0.005767311976833717
0.013027281642169543
0.005578108823159079
0.0049091037349438945
0.01065605621296278
0.0014327435563486045
0.005470763002570659
0.008075670414276181
0.011375543016833455
0.0057744764867834406
0.005239130660029072
0.008692386858516721
0.005314757060698931
0.004336871466283057
0.005937534323549194
0.01122595343832386
0.005962070096240728
0.009335795291337278
0.012131689142275463
0.011038804558877482
0.0075335321384523155
0.01259980301252871
0.007738430739758226
0.00372327350955874
0.003926790795446231
0.003830895484402122
0.0037983163551564727
0.009818254157049499
0.011285450317866548
0.0037783895213934784
0.009722076861268988
0.01137944846968112
0.009735692613526246
0.010930719972355188
0.0004688837484051443
0.008571595895172819
0.012140075520153027
0.01184769067341086
0.004037288054467094
0.005810075728765224
0.0016719393166658265
0.010317756195416092
0.0059291459306720674
0.0063032173095324065
0.0010932708836810926
0.011238518970532334
0.006035066882879185
0.01167161285347455
0.0051066277432031204
0.012271171978593192
0.0020738154006261773
0.007234457202625483
0.01246666995581103
0.002248075268931555
0.011305762644414817
0.011889443895119749
0.002775499484173823
0.0014839625137158577
0.009513401458135761
0.0047651312308563745
0.010896480584468718
0.005009200651198712
0.0054151273664105925
0.007153537937343127
0.008452432198364265
0.010854452777041106
0.0003847414397711008
0.00988379559025767
0.01237671282296291
0.008383007502604168
0.005202194181452482
0.008155814278779297
0.007284232851213014
0.011209196957026211
0.011227466088550806
6.166389299776838e-05
0.011054810363866891
0.004534391337036308
0.007128855024522785
0.010560654029806115
0.004779787322292895
0.004481934068197493
SCALARS samples_used float 1
LOOKUP_TABLE default
256.0
256.0
256.0
256.0
256.0
256.0
256.0
256.0
256.0
256.0
256.0
256.0
256.0
256.0
256.0
256.0
256.0
256.0
256.0
256.0
256.0
256.0
256.0
256.0
256.0
256.0
256.0
256.0
256.0
256.0
256.0
256.0
256.0
256.0
256.0
256.0
256.0
256.0
256.0
256.0
256.0
256.0
256.0
256.0
256.0
256.0
256.0
256.0
256.0
256.0
256.0
256.0
256.0
256.0
256.0
256.0
256.0
256.0
256.0
256.0
256.0
256.0
256.0
256.0
256.0
256.0
256.0
256.0
256.0
256.0
256.0
256.0
256.0
256.0
256.0
256.0
256.0
256.0
256.0
256.0
256.0
256.0
256.0
256.0
256.0
256.0
256.0
256.0
256.0
256.0
256.0
256.0
256.0
256.0
256.0
256.0
256.0
256.0
256.0
256.0
