# vtk DataFile Version 3.0
Zombie mixed Neumann structured grid
ASCII
DATASET STRUCTURED_POINTS
DIMENSIONS 8 8 8
ORIGIN -0.22 -0.22 -0.22
SPACING 0.06285714285714286 0.06285714285714286 0.06285714285714286
POINT_DATA 512
SCALARS solution float 1
LOOKUP_TABLE default
-0.6599999666213989
-0.5971428751945496
-0.5342857241630554
-0.4714285731315613
-0.40857142210006714
-0.345714271068573
-0.28285714983940125
-0.2199999988079071
-0.5971428155899048
-0.5342857241630554
-0.4714285433292389
-0.4085714817047119
-0.345714271068573
-0.282857209444046
-0.2199999839067459
-0.15714284777641296
-0.5342856645584106
-0.4714285433292389
-0.40857142210006714
-0.345714271068573
-0.28285712003707886
-0.2199999839067459
-0.15714286267757416
-0.09428569674491882
-0.4714285731315613
-0.4085714817047119
-0.3457143306732178
-0.28285714983940125
-0.21999996900558472
-0.15714290738105774
-0.09428571164608002
-0.03142857551574707
-0.40857142210006714
-0.345714271068573
-0.28285714983940125
-0.21999996900558472
-0.15714284777641296
-0.09428571909666061
-0.031428635120391846
0.03142857551574707
-0.345714271068573
-0.282857209444046
-0.2199999988079071
-0.15714284777641296
-0.09428572654724121
-0.03142854571342468
0.03142854571342468
0.09428571164608002
-0.28285714983940125
-0.2199999988079071
-0.15714287757873535
-0.09428571164608002
-0.031428635120391846
0.03142854571342468
0.09428569674491882
0.15714286267757416
-0.2199999988079071
-0.15714286267757416
-0.09428571164608002
-0.03142857551574707
0.03142857551574707
0.09428571164608002
0.15714286267757416
0.2199999988079071
-0.5971428155899048
-0.5342857241630554
-0.4714285433292389
-0.4085714817047119
-0.345714271068573
-0.282857209444046
-0.2199999839067459
-0.15714284777641296
-0.5342857241630554
-0.47400301694869995
-0.4072398543357849
-0.34824687242507935
-0.2818337678909302
-0.22770479321479797
-0.14432619512081146
-0.09428569674491882
-0.4714285433292389
-0.4129701852798462
-0.35166800022125244
-0.2722807824611664
-0.21365490555763245
-0.16042481362819672
-0.1000605896115303
-0.03142854571342468
-0.4085714817047119
-0.32755088806152344
-0.28290045261383057
-0.21274825930595398
-0.1742912381887436
-0.09373558312654495
-0.02407393418252468
0.031428635120391846
-0.345714271068573
-0.28223541378974915
-0.2291024774312973
-0.1556357890367508
-0.10879296809434891
-0.04185405373573303
0.024712426587939262
0.09428571164608002
-0.282857209444046
-0.2286577671766281
-0.17358489334583282
-0.10547424107789993
-0.04312576726078987
0.015857677906751633
0.09282859414815903
0.15714287757873535
-0.2199999988079071
-0.15257962048053741
-0.09999512881040573
-0.03087930753827095
0.03288773074746132
0.09034297615289688
0.15550032258033752
0.2199999988079071
-0.15714286267757416
-0.09428569674491882
-0.03142854571342468
0.031428635120391846
0.09428571164608002
0.15714287757873535
0.2199999988079071
0.28285714983940125
-0.5342856645584106
-0.4714285433292389
-0.40857142210006714
-0.345714271068573
-0.28285712003707886
-0.2199999839067459
-0.15714286267757416
-0.09428569674491882
-0.4714285433292389
-0.42416951060295105
-0.3449585437774658
-0.27247893810272217
-0.23320816457271576
-0.16486242413520813
-0.1026701033115387
-0.03142854571342468
-0.40857142210006714
-0.3398740291595459
-0.2941737771034241
-0.22908002138137817
-0.15830843150615692
-0.12436380982398987
-0.04052890092134476
0.03142854571342468
-0.3457143008708954
-0.27890491485595703
-0.21943454444408417
-0.14916397631168365
-0.11716309934854507
-0.03374549001455307
0.023661980405449867
0.09428572654724121
-0.28285714983940125
-0.22873614728450775
-0.15263286232948303
-0.10375163704156876
-0.06034216284751892
0.020694388076663017
0.09109772741794586
0.15714289247989655
-0.2199999988079071
-0.1773892194032669
-0.1125703975558281
-0.059464991092681885
0.03405165299773216
0.07865069806575775
0.1534469872713089
0.2199999988079071
-0.15714287757873535
-0.09488232433795929
-0.04742329940199852
0.0029357417952269316
0.08154681324958801
0.1605832278728485
0.21312282979488373
0.282857209444046
-0.09428571164608002
-0.03142854571342468
0.03142854571342468
0.09428572654724121
0.15714284777641296
0.2199999988079071
0.282857209444046
0.345714271068573
-0.4714285731315613
-0.4085714817047119
-0.345714271068573
-0.28285714983940125
-0.21999996900558472
-0.15714284777641296
-0.09428571164608002
-0.03142857551574707
-0.4085714817047119
-0.34693899750709534
-0.2813219726085663
-0.20359894633293152
-0.15348213911056519
-0.10695388913154602
-0.03473012149333954
0.031428635120391846
-0.3457143008708954
-0.28655004501342773
-0.2178455889225006
-0.16459780931472778
-0.07397039234638214
-0.02816619724035263
0.036375079303979874
0.09428572654724121
-0.28285714983940125
-0.22068394720554352
-0.15736621618270874
-0.10157079994678497
-0.05756620317697525
0.030348652973771095
0.10835790634155273
0.15714284777641296
-0.21999996900558472
-0.16149766743183136
-0.13088852167129517
-0.07417835295200348
-0.008804102428257465
0.06955435127019882
0.16376502811908722
0.21999996900558472
-0.15714289247989655
-0.10116346925497055
-0.07175450772047043
-0.023101110011339188
0.042218081653118134
0.13106578588485718
0.22189833223819733
0.28285714983940125
-0.09428571164608002
-0.03744865208864212
-0.0027634298894554377
0.0313420444726944
0.11297310143709183
0.20797692239284515
0.2617241144180298
0.345714271068573
-0.03142857551574707
0.031428635120391846
0.09428571909666061
0.15714284777641296
0.21999996900558472
0.28285714983940125
0.345714271068573
0.40857142210006714
-0.40857142210006714
-0.345714271068573
-0.28285714983940125
-0.21999996900558472
-0.15714284777641296
-0.09428572654724121
-0.031428635120391846
0.03142857551574707
-0.345714271068573
-0.2802678644657135
-0.2247506082057953
-0.16649943590164185
-0.11425258219242096
-0.025228939950466156
0.03151361271739006
0.09428571164608002
-0.28285714983940125
-0.216207355260849
-0.15730074048042297
-0.1162298247218132
-0.04492269083857536
0.01344448421150446
0.09114475548267365
0.15714284777641296
-0.21999996900558472
-0.15822191536426544
-0.09540034830570221
-0.05680251494050026
0.004722312092781067
0.06834977120161057
0.16015516221523285
0.21999996900558472
-0.15714284777641296
-0.10035604238510132
-0.057639628648757935
-0.029499974101781845
0.0494418628513813
0.13526888191699982
0.22329139709472656
0.28285714983940125
-0.09428572654724121
-0.0500793531537056
-0.001396559993736446
0.0
0.0
0.1897720992565155
0.25502774119377136
0.3457143008708954
-0.031428635120391846
0.01868675835430622
0.05309252813458443
0.09676728397607803
0.1854390799999237
0.28038346767425537
0.3330710232257843
0.4085714817047119
0.03142857551574707
0.09428571164608002
0.15714290738105774
0.21999996900558472
0.28285714983940125
0.3457143306732178
0.4085714817047119
0.4714285731315613
-0.345714271068573
-0.282857209444046
-0.2199999988079071
-0.15714289247989655
-0.09428572654724121
-0.03142854571342468
0.03142854571342468
0.09428571164608002
-0.282857209444046
-0.21793848276138306
-0.19192272424697876
-0.07825350016355515
-0.03638530895113945
0.036859553307294846
0.08764410018920898
0.15714287757873535
-0.2199999988079071
-0.15054315328598022
-0.09988359361886978
-0.028350213542580605
0.031005047261714935
0.08454989641904831
0.1732964962720871
0.2199999988079071
-0.15714284777641296
-0.08773121982812881
-0.0436142198741436
0.03104797564446926
0.09526931494474411
0.14979737997055054
0.22653770446777344
0.28285714983940125
-0.09428572654724121
-0.041661348193883896
0.014451061375439167
0.0774242952466011
0.12850245833396912
0.2034829705953598
0.27352094650268555
0.3457143008708954
-0.03142854571342468
0.017530815675854683
0.08094556629657745
0.1381375938653946
0.20710885524749756
0.2503250539302826
0.3520643413066864
0.40857142210006714
0.03142854571342468
0.10318261384963989
0.14878596365451813
0.18201160430908203
0.28010323643684387
0.3356859087944031
0.4130949079990387
0.4714285433292389
0.09428569674491882
0.15714286267757416
0.2199999839067459
0.28285712003707886
0.345714271068573
0.40857142210006714
0.4714285433292389
0.5342856645584106
-0.28285714983940125
-0.2199999988079071
-0.15714287757873535
-0.09428571164608002
-0.031428635120391846
0.03142854571342468
0.09428569674491882
0.15714286267757416
-0.2199999988079071
-0.15872812271118164
-0.08186572045087814
-0.02764188125729561
0.04216247797012329
0.10741736739873886
0.16436274349689484
0.2199999988079071
-0.15714287757873535
-0.09907065331935883
-0.0393330343067646
0.030220022425055504
0.09418285638093948
0.15316325426101685
0.21540550887584686
0.282857209444046
-0.09428571164608002
-0.0523688830435276
0.0347943939268589
0.08866994082927704
0.1638641506433487
0.2341115027666092
0.27739664912223816
0.345714271068573
-0.031428635120391846
0.030259085819125175
0.0975811779499054
0.136002779006958
0.22159437835216522
0.2908567786216736
0.33642616868019104
0.4085714817047119
0.03142854571342468
0.092582106590271
0.15565815567970276
0.22232648730278015
0.24792183935642242
0.3328557312488556
0.4135183095932007
0.4714285433292389
0.09428569674491882
0.17124459147453308
0.21376968920230865
0.27727624773979187
0.34013795852661133
0.40311378240585327
0.45767298340797424
0.5342857241630554
0.15714284777641296
0.2199999839067459
0.282857209444046
0.345714271068573
0.4085714817047119
0.4714285433292389
0.5342857241630554
0.5971428155899048
-0.2199999988079071
-0.15714286267757416
-0.09428571164608002
-0.03142857551574707
0.03142857551574707
0.09428571164608002
0.15714286267757416
0.2199999988079071
-0.15714286267757416
-0.09428569674491882
-0.03142854571342468
0.031428635120391846
0.09428571164608002
0.15714287757873535
0.2199999988079071
0.28285714983940125
-0.09428571164608002
-0.03142854571342468
0.03142854571342468
0.09428572654724121
0.15714289247989655
0.2199999988079071
0.282857209444046
0.345714271068573
-0.03142857551574707
0.031428635120391846
0.09428572654724121
0.15714284777641296
0.21999996900558472
0.28285714983940125
0.345714271068573
0.40857142210006714
0.03142857551574707
0.09428571164608002
0.15714284777641296
0.21999996900558472
0.28285714983940125
0.345714271068573
0.4085714817047119
0.4714285731315613
0.09428569674491882
0.15714286267757416
0.2199999839067459
0.28285712003707886
0.345714271068573
0.40857142210006714
0.4714285433292389
0.5342856645584106
0.15714284777641296
0.2199999839067459
0.282857209444046
0.345714271068573
0.4085714817047119
0.4714285433292389
0.5342857241630554
0.5971428155899048
0.2199999988079071
0.28285714983940125
0.345714271068573
0.40857142210006714
0.4714285731315613
0.5342857241630554
0.5971428751945496
0.6599999666213989
SCALARS exact float 1
LOOKUP_TABLE default
-0.6599999964237213
-0.5971428602933884
-0.5342857092618942
-0.471428569406271
-0.40857142582535744
-0.3457142859697342
-0.28285713493824005
-0.2199999988079071
-0.5971428602933884
-0.5342857241630554
-0.4714285731315613
-0.40857143327593803
-0.3457142896950245
-0.28285714983940125
-0.2199999988079071
-0.15714286267757416
-0.5342857092618942
-0.4714285731315613
-0.40857142210006714
-0.3457142822444439
-0.28285713866353035
-0.2199999988079071
-0.15714284777641296
-0.09428571164608002
-0.471428569406271
-0.40857143327593803
-0.3457142822444439
-0.28285714238882065
-0.2199999988079071
-0.15714285895228386
-0.09428570792078972
-0.03142857179045677
-0.40857142582535744
-0.3457142896950245
-0.28285713866353035
-0.2199999988079071
-0.15714285522699356
-0.09428571537137032
-0.031428564339876175
0.03142857179045677
-0.3457142859697342
-0.28285714983940125
-0.2199999988079071
-0.15714285895228386
-0.09428571537137032
-0.03142857551574707
0.03142857551574707
0.09428571164608002
-0.28285713493824005
-0.2199999988079071
-0.15714284777641296
-0.09428570792078972
-0.031428564339876175
0.03142857551574707
0.09428572654724121
0.15714286267757416
-0.2199999988079071
-0.15714286267757416
-0.09428571164608002
-0.03142857179045677
0.03142857179045677
0.09428571164608002
0.15714286267757416
0.2199999988079071
-0.5971428602933884
-0.5342857241630554
-0.4714285731315613
-0.40857143327593803
-0.3457142896950245
-0.28285714983940125
-0.2199999988079071
-0.15714286267757416
-0.5342857241630554
-0.4714285880327225
-0.40857143700122833
-0.3457142971456051
-0.28285715356469154
-0.2200000137090683
-0.15714286267757416
-0.09428572654724121
-0.4714285731315613
-0.40857143700122833
-0.3457142859697342
-0.28285714611411095
-0.2200000025331974
-0.15714286267757416
-0.09428571164608002
-0.03142857551574707
-0.40857143327593803
-0.3457142971456051
-0.28285714611411095
-0.2200000062584877
-0.15714286267757416
-0.09428572282195091
-0.03142857179045677
0.031428564339876175
-0.3457142896950245
-0.28285715356469154
-0.2200000025331974
-0.15714286267757416
-0.09428571909666061
-0.03142857924103737
0.03142857179045677
0.09428570792078972
-0.28285714983940125
-0.2200000137090683
-0.15714286267757416
-0.09428572282195091
-0.03142857924103737
0.031428560614585876
0.09428571164608002
0.15714284777641296
-0.2199999988079071
-0.15714286267757416
-0.09428571164608002
-0.03142857179045677
0.03142857179045677
0.09428571164608002
0.15714286267757416
0.2199999988079071
-0.15714286267757416
-0.09428572654724121
-0.03142857551574707
0.031428564339876175
0.09428570792078972
0.15714284777641296
0.2199999988079071
0.28285713493824005
-0.5342857092618942
-0.4714285731315613
-0.40857142210006714
-0.3457142822444439
-0.28285713866353035
-0.2199999988079071
-0.15714284777641296
-0.09428571164608002
-0.4714285731315613
-0.40857143700122833
-0.3457142859697342
-0.28285714611411095
-0.2200000025331974
-0.15714286267757416
-0.09428571164608002
-0.03142857551574707
-0.40857142210006714
-0.3457142859697342
-0.28285713493824005
-0.2199999950826168
-0.15714285150170326
-0.09428571164608002
-0.031428560614585876
0.03142857551574707
-0.3457142822444439
-0.28285714611411095
-0.2199999950826168
-0.15714285522699356
-0.09428571164608002
-0.03142857179045677
0.03142857924103737
0.09428571537137032
-0.28285713866353035
-0.2200000025331974
-0.15714285150170326
-0.09428571164608002
-0.03142856806516647
0.03142857179045677
0.09428572282195091
0.15714285895228386
-0.2199999988079071
-0.15714286267757416
-0.09428571164608002
-0.03142857179045677
0.03142857179045677
0.09428571164608002
0.15714286267757416
0.2199999988079071
-0.15714284777641296
-0.09428571164608002
-0.031428560614585876
0.03142857924103737
0.09428572282195091
0.15714286267757416
0.2200000137090683
0.28285714983940125
-0.09428571164608002
-0.03142857551574707
0.03142857551574707
0.09428571537137032
0.15714285895228386
0.2199999988079071
0.28285714983940125
0.3457142859697342
-0.471428569406271
-0.40857143327593803
-0.3457142822444439
-0.28285714238882065
-0.2199999988079071
-0.15714285895228386
-0.09428570792078972
-0.03142857179045677
-0.40857143327593803
-0.3457142971456051
-0.28285714611411095
-0.2200000062584877
-0.15714286267757416
-0.09428572282195091
-0.03142857179045677
0.031428564339876175
-0.3457142822444439
-0.28285714611411095
-0.2199999950826168
-0.15714285522699356
-0.09428571164608002
-0.03142857179045677
0.03142857924103737
0.09428571537137032
-0.28285714238882065
-0.2200000062584877
-0.15714285522699356
-0.09428571537137032
-0.03142857179045677
0.03142856806516647
0.09428571909666061
0.15714285522699356
-0.2199999988079071
-0.15714286267757416
-0.09428571164608002
-0.03142857179045677
0.03142857179045677
0.09428571164608002
0.15714286267757416
0.2199999988079071
-0.15714285895228386
-0.09428572282195091
-0.03142857179045677
0.03142856806516647
0.09428571164608002
0.15714285150170326
0.2200000025331974
0.28285713866353035
-0.09428570792078972
-0.03142857179045677
0.03142857924103737
0.09428571909666061
0.15714286267757416
0.2200000025331974
0.28285715356469154
0.3457142896950245
-0.03142857179045677
0.031428564339876175
0.09428571537137032
0.15714285522699356
0.2199999988079071
0.28285713866353035
0.3457142896950245
0.40857142582535744
-0.40857142582535744
-0.3457142896950245
-0.28285713866353035
-0.2199999988079071
-0.15714285522699356
-0.09428571537137032
-0.031428564339876175
0.03142857179045677
-0.3457142896950245
-0.28285715356469154
-0.2200000025331974
-0.15714286267757416
-0.09428571909666061
-0.03142857924103737
0.03142857179045677
0.09428570792078972
-0.28285713866353035
-0.2200000025331974
-0.15714285150170326
-0.09428571164608002
-0.03142856806516647
0.03142857179045677
0.09428572282195091
0.15714285895228386
-0.2199999988079071
-0.15714286267757416
-0.09428571164608002
-0.03142857179045677
0.03142857179045677
0.09428571164608002
0.15714286267757416
0.2199999988079071
-0.15714285522699356
-0.09428571909666061
-0.03142856806516647
0.03142857179045677
0.09428571537137032
0.15714285522699356
0.2200000062584877
0.28285714238882065
-0.09428571537137032
-0.03142857924103737
0.03142857179045677
0.09428571164608002
0.15714285522699356
0.2199999950826168
0.28285714611411095
0.3457142822444439
-0.031428564339876175
0.03142857179045677
0.09428572282195091
0.15714286267757416
0.2200000062584877
0.28285714611411095
0.3457142971456051
0.40857143327593803
0.03142857179045677
0.09428570792078972
0.15714285895228386
0.2199999988079071
0.28285714238882065
0.3457142822444439
0.40857143327593803
0.471428569406271
-0.3457142859697342
-0.28285714983940125
-0.2199999988079071
-0.15714285895228386
-0.09428571537137032
-0.03142857551574707
0.03142857551574707
0.09428571164608002
-0.28285714983940125
-0.2200000137090683
-0.15714286267757416
-0.09428572282195091
-0.03142857924103737
0.031428560614585876
0.09428571164608002
0.15714284777641296
-0.2199999988079071
-0.15714286267757416
-0.09428571164608002
-0.03142857179045677
0.03142857179045677
0.09428571164608002
0.15714286267757416
0.2199999988079071
-0.15714285895228386
-0.09428572282195091
-0.03142857179045677
0.03142856806516647
0.09428571164608002
0.15714285150170326
0.2200000025331974
0.28285713866353035
-0.09428571537137032
-0.03142857924103737
0.03142857179045677
0.09428571164608002
0.15714285522699356
0.2199999950826168
0.28285714611411095
0.3457142822444439
-0.03142857551574707
0.031428560614585876
0.09428571164608002
0.15714285150170326
0.2199999950826168
0.28285713493824005
0.3457142859697342
0.40857142210006714
0.03142857551574707
0.09428571164608002
0.15714286267757416
0.2200000025331974
0.28285714611411095
0.3457142859697342
0.40857143700122833
0.4714285731315613
0.09428571164608002
0.15714284777641296
0.2199999988079071
0.28285713866353035
0.3457142822444439
0.40857142210006714
0.4714285731315613
0.5342857092618942
-0.28285713493824005
-0.2199999988079071
-0.15714284777641296
-0.09428570792078972
-0.031428564339876175
0.03142857551574707
0.09428572654724121
0.15714286267757416
-0.2199999988079071
-0.15714286267757416
-0.09428571164608002
-0.03142857179045677
0.03142857179045677
0.09428571164608002
0.15714286267757416
0.2199999988079071
-0.15714284777641296
-0.09428571164608002
-0.031428560614585876
0.03142857924103737
0.09428572282195091
0.15714286267757416
0.2200000137090683
0.28285714983940125
-0.09428570792078972
-0.03142857179045677
0.03142857924103737
0.09428571909666061
0.15714286267757416
0.2200000025331974
0.28285715356469154
0.3457142896950245
-0.031428564339876175
0.03142857179045677
0.09428572282195091
0.15714286267757416
0.2200000062584877
0.28285714611411095
0.3457142971456051
0.40857143327593803
0.03142857551574707
0.09428571164608002
0.15714286267757416
0.2200000025331974
0.28285714611411095
0.3457142859697342
0.40857143700122833
0.4714285731315613
0.09428572654724121
0.15714286267757416
0.2200000137090683
0.28285715356469154
0.3457142971456051
0.40857143700122833
0.4714285880327225
0.5342857241630554
0.15714286267757416
0.2199999988079071
0.28285714983940125
0.3457142896950245
0.40857143327593803
0.4714285731315613
0.5342857241630554
0.5971428602933884
-0.2199999988079071
-0.15714286267757416
-0.09428571164608002
-0.03142857179045677
0.03142857179045677
0.09428571164608002
0.15714286267757416
0.2199999988079071
-0.15714286267757416
-0.09428572654724121
-0.03142857551574707
0.031428564339876175
0.09428570792078972
0.15714284777641296
0.2199999988079071
0.28285713493824005
-0.09428571164608002
-0.03142857551574707
0.03142857551574707
0.09428571537137032
0.15714285895228386
0.2199999988079071
0.28285714983940125
0.3457142859697342
-0.03142857179045677
0.031428564339876175
0.09428571537137032
0.15714285522699356
0.2199999988079071
0.28285713866353035
0.3457142896950245
0.40857142582535744
0.03142857179045677
0.09428570792078972
0.15714285895228386
0.2199999988079071
0.28285714238882065
0.3457142822444439
0.40857143327593803
0.471428569406271
0.09428571164608002
0.15714284777641296
0.2199999988079071
0.28285713866353035
0.3457142822444439
0.40857142210006714
0.4714285731315613
0.5342857092618942
0.15714286267757416
0.2199999988079071
0.28285714983940125
0.3457142896950245
0.40857143327593803
0.4714285731315613
0.5342857241630554
0.5971428602933884
0.2199999988079071
0.28285713493824005
0.3457142859697342
0.40857142582535744
0.471428569406271
0.5342857092618942
0.5971428602933884
0.6599999964237213
SCALARS abs_error float 1
LOOKUP_TABLE default
2.9802322387695312e-08
1.4901161193847656e-08
1.4901161193847656e-08
3.725290298461914e-09
3.725290298461914e-09
1.4901161193847656e-08
1.4901161193847656e-08
0.0
4.470348358154297e-08
0.0
2.9802322387695312e-08
4.842877388000488e-08
1.862645149230957e-08
5.960464477539063e-08
1.4901161193847656e-08
1.4901161193847656e-08
4.470348358154297e-08
2.9802322387695312e-08
0.0
1.1175870895385742e-08
1.862645149230957e-08
1.4901161193847656e-08
1.4901161193847656e-08
1.4901161193847656e-08
3.725290298461914e-09
4.842877388000488e-08
4.842877388000488e-08
7.450580596923828e-09
2.9802322387695312e-08
4.842877388000488e-08
3.725290298461914e-09
3.725290298461914e-09
3.725290298461914e-09
1.862645149230957e-08
1.1175870895385742e-08
2.9802322387695312e-08
7.450580596923828e-09
3.725290298461914e-09
7.078051567077637e-08
3.725290298461914e-09
1.4901161193847656e-08
5.960464477539063e-08
0.0
1.1175870895385742e-08
1.1175870895385742e-08
2.9802322387695312e-08
2.9802322387695312e-08
0.0
1.4901161193847656e-08
0.0
2.9802322387695312e-08
3.725290298461914e-09
7.078051567077637e-08
2.9802322387695312e-08
2.9802322387695312e-08
0.0
0.0
0.0
0.0
3.725290298461914e-09
3.725290298461914e-09
0.0
0.0
0.0
4.470348358154297e-08
0.0
2.9802322387695312e-08
4.842877388000488e-08
1.862645149230957e-08
5.960464477539063e-08
1.4901161193847656e-08
1.4901161193847656e-08
0.0
0.002574428915977478
0.0013315826654434204
0.0025325752794742584
0.0010233856737613678
0.007704779505729675
0.012816667556762695
2.9802322387695312e-08
2.9802322387695312e-08
0.004398748278617859
0.0059537142515182495
0.010576363652944565
0.006345096975564957
0.0032819509506225586
0.005774877965450287
2.9802322387695312e-08
4.842877388000488e-08
0.01816340908408165
4.330649971961975e-05
0.007251746952533722
0.017148375511169434
0.0005501396954059601
0.007354637607932091
7.078051567077637e-08
1.862645149230957e-08
0.0006217397749423981
0.0091024748980999
0.0015070736408233643
0.014507248997688293
0.010425474494695663
0.0067161452025175095
3.725290298461914e-09
5.960464477539063e-08
0.008657753467559814
0.016442030668258667
0.01118851825594902
0.011697188019752502
0.015570882707834244
0.00145711749792099
2.9802322387695312e-08
0.0
0.004563242197036743
0.005709417164325714
0.0005492642521858215
0.0014591589570045471
0.003942735493183136
0.0016425400972366333
0.0
0.0
2.9802322387695312e-08
2.9802322387695312e-08
7.078051567077637e-08
3.725290298461914e-09
2.9802322387695312e-08
0.0
1.4901161193847656e-08
4.470348358154297e-08
2.9802322387695312e-08
0.0
1.1175870895385742e-08
1.862645149230957e-08
1.4901161193847656e-08
1.4901161193847656e-08
1.4901161193847656e-08
2.9802322387695312e-08
0.015598073601722717
0.0007557421922683716
0.010378208011388779
0.013208162039518356
0.007719561457633972
0.00838439166545868
2.9802322387695312e-08
0.0
0.0058402568101882935
0.011316642165184021
0.009080026298761368
0.001165580004453659
0.03007809817790985
0.00910034030675888
2.9802322387695312e-08
1.862645149230957e-08
0.003952231258153915
0.0005654506385326385
0.007978878915309906
0.022877387702465057
0.0023169182240962982
0.0077665988355875015
1.1175870895385742e-08
1.1175870895385742e-08
0.008736144751310349
0.00450998917222023
0.009465925395488739
0.028913594782352448
0.010734183713793755
0.0031879954040050507
3.3527612686157227e-08
0.0
0.02024635672569275
0.018284685909748077
0.028036419302225113
0.0026230812072753906
0.015635013580322266
0.003695875406265259
0.0
2.9802322387695312e-08
0.0005966126918792725
0.015994738787412643
0.028492837445810437
0.0127389095723629
0.003440365195274353
0.00687718391418457
5.960464477539063e-08
0.0
2.9802322387695312e-08
2.9802322387695312e-08
1.1175870895385742e-08
1.1175870895385742e-08
0.0
5.960464477539063e-08
1.4901161193847656e-08
3.725290298461914e-09
4.842877388000488e-08
1.1175870895385742e-08
7.450580596923828e-09
2.9802322387695312e-08
1.1175870895385742e-08
3.725290298461914e-09
3.725290298461914e-09
4.842877388000488e-08
0.0012247003614902496
0.0015351735055446625
0.016401059925556183
0.003660723567008972
0.012668166309595108
0.0033015497028827667
7.078051567077637e-08
1.862645149230957e-08
0.0036928988993167877
0.0021544061601161957
0.007454954087734222
0.020315319299697876
0.0032623745501041412
0.004946500062942505
1.1175870895385742e-08
7.450580596923828e-09
0.0006839409470558167
0.00022336095571517944
0.007285084575414658
0.02613763138651848
0.0010799150913953781
0.01407218724489212
7.450580596923828e-09
2.9802322387695312e-08
0.004354804754257202
0.03660281002521515
0.04274978116154671
0.04023267421871424
0.024731360375881195
0.0066221654415130615
2.9802322387695312e-08
3.3527612686157227e-08
0.006877746433019638
0.04032593593001366
0.05452967807650566
0.052067629992961884
0.026077065616846085
0.0018983297049999237
1.1175870895385742e-08
3.725290298461914e-09
0.0060200802981853485
0.034192009130492806
0.06294367462396622
0.04416976124048233
0.01202308014035225
0.02113303914666176
1.862645149230957e-08
3.725290298461914e-09
7.078051567077637e-08
3.725290298461914e-09
7.450580596923828e-09
2.9802322387695312e-08
1.1175870895385742e-08
1.862645149230957e-08
3.725290298461914e-09
3.725290298461914e-09
1.862645149230957e-08
1.1175870895385742e-08
2.9802322387695312e-08
7.450580596923828e-09
1.1175870895385742e-08
7.078051567077637e-08
3.725290298461914e-09
1.862645149230957e-08
0.0025892890989780426
0.004750605672597885
0.009356573224067688
0.019966863095760345
0.006199639290571213
8.504092693328857e-05
3.725290298461914e-09
1.1175870895385742e-08
0.003792647272348404
0.0001578889787197113
0.021944113075733185
0.01349412277340889
0.017984087578952312
0.0031409673392772675
1.1175870895385742e-08
2.9802322387695312e-08
0.0010790526866912842
0.0011146366596221924
0.025373943150043488
0.026706259697675705
0.025935940444469452
0.0030122995376586914
2.9802322387695312e-08
7.450580596923828e-09
0.006070323288440704
0.02621106058359146
0.06092854589223862
0.044843852519989014
0.021873973309993744
0.003291390836238861
7.450580596923828e-09
1.1175870895385742e-08
0.018650773912668228
0.03282513178419322
0.0
0.0
0.030227895826101303
0.027829404920339584
1.862645149230957e-08
7.078051567077637e-08
0.01274181343615055
0.041193194687366486
0.060375578701496124
0.034560926258563995
0.0024736784398555756
0.012643273919820786
4.842877388000488e-08
3.725290298461914e-09
3.725290298461914e-09
4.842877388000488e-08
2.9802322387695312e-08
7.450580596923828e-09
4.842877388000488e-08
4.842877388000488e-08
3.725290298461914e-09
1.4901161193847656e-08
5.960464477539063e-08
0.0
3.3527612686157227e-08
1.1175870895385742e-08
2.9802322387695312e-08
2.9802322387695312e-08
0.0
5.960464477539063e-08
0.0020615309476852417
0.0347798615694046
0.016032222658395767
0.004956729710102081
0.005430992692708969
0.006641611456871033
2.9802322387695312e-08
0.0
0.006599709391593933
0.005597881972789764
0.0030783582478761673
0.00042352452874183655
0.009735815227031708
0.01615363359451294
0.0
1.1175870895385742e-08
0.006554502993822098
0.012185648083686829
0.0003805924206972122
0.000983603298664093
0.007345471531152725
0.0065377019345760345
1.1175870895385742e-08
1.1175870895385742e-08
0.010232768952846527
0.016977510415017605
0.016861416399478912
0.028640396893024445
0.016517024487257004
0.0093361996114254
1.862645149230957e-08
2.9802322387695312e-08
0.013897744938731194
0.013340145349502563
0.01900525763630867
0.012891139835119247
0.03253208100795746
0.0063500553369522095
0.0
2.9802322387695312e-08
0.008896902203559875
0.00835689902305603
0.03798839822411537
0.0027539096772670746
0.010028377175331116
0.004523470997810364
2.9802322387695312e-08
1.4901161193847656e-08
1.4901161193847656e-08
1.4901161193847656e-08
1.862645149230957e-08
1.1175870895385742e-08
0.0
2.9802322387695312e-08
4.470348358154297e-08
1.4901161193847656e-08
0.0
2.9802322387695312e-08
3.725290298461914e-09
7.078051567077637e-08
2.9802322387695312e-08
2.9802322387695312e-08
0.0
0.0
0.001585260033607483
0.012419991195201874
0.0037866905331611633
0.01073390617966652
0.013131655752658844
0.007219880819320679
0.0
2.9802322387695312e-08
0.004784941673278809
0.007904473692178726
0.001208556815981865
0.00010286644101142883
0.003979608416557312
0.0045945048332214355
5.960464477539063e-08
3.725290298461914e-09
0.02094031125307083
0.003365814685821533
0.0056157782673835754
0.006721287965774536
0.014111500233411789
0.005460504442453384
1.862645149230957e-08
7.078051567077637e-08
0.0011694859713315964
0.003295455127954483
0.02114008367061615
0.0015943720936775208
0.007999632507562637
0.009288128465414047
4.842877388000488e-08
2.9802322387695312e-08
0.001703605055809021
0.001484706997871399
0.0023264847695827484
0.03493530675768852
0.012858554720878601
0.004946872591972351
2.9802322387695312e-08
2.9802322387695312e-08
0.014101728796958923
0.0062303245067596436
0.0055809058248996735
0.005576338618993759
0.005457654595375061
0.01375560462474823
0.0
1.4901161193847656e-08
1.4901161193847656e-08
5.960464477539063e-08
1.862645149230957e-08