# vtk DataFile Version 3.0
WoSt mixed Neumann grid16 walks128 epsilon1e-3
ASCII
DATASET STRUCTURED_POINTS
DIMENSIONS 16 16 16
ORIGIN -1.1 -1.1 -1.1
SPACING 0.14666666666666667 0.14666666666666667 0.14666666666666667
POINT_DATA 4096
SCALARS solution float 1
LOOKUP_TABLE default
-3.30000019
-3.15333319
-3.00666666
-2.86000013
-2.71333337
-2.5666666
-2.42000008
-2.27333355
-2.12666655
-1.98000002
-1.83333337
-1.68666673
-1.53999996
-1.39333344
-1.24666667
-1.10000002
-3.15333319
-3.00666666
-2.86000013
-2.71333337
-2.5666666
-2.42000008
-2.27333331
-2.12666655
-1.98000002
-1.83333337
-1.68666673
-1.53999996
-1.39333332
-1.24666667
-1.10000002
-0.953333318
-3.00666666
-2.86000013
-2.71333337
-2.5666666
-2.42000008
-2.27333355
-2.12666655
-1.98000002
-1.83333337
-1.68666673
-1.53999996
-1.39333344
-1.24666667
-1.10000002
-0.953333378
-0.806666672
-2.86000013
-2.71333337
-2.5666666
-2.42000008
-2.27333355
-2.12666655
-1.98000002
-1.83333337
-1.68666673
-1.54000008
-1.39333344
-1.24666667
-1.10000002
-0.953333378
-0.806666732
-0.660000026
-2.71333337
-2.5666666
-2.42000008
-2.27333355
-2.12666655
-1.98000002
-1.83333337
-1.68666673
-1.53999996
-1.39333332
-1.24666667
-1.10000002
-0.953333318
-0.806666672
-0.660000026
-0.513333321
-2.5666666
-2.42000008
-2.27333355
-2.12666655
-1.98000002
-1.83333337
-1.68666673
-1.53999996
-1.39333344
-1.24666667
-1.10000002
-0.953333378
-0.806666672
-0.660000026
-0.51333338
-0.366666675
-2.42000008
-2.27333331
-2.12666655
-1.98000002
-1.83333337
-1.68666673
-1.53999996
-1.39333332
-1.24666667
-1.10000002
-0.953333378
-0.806666732
-0.659999967
-0.513333321
-0.366666675
-0.220000029
-2.27333355
-2.12666655
-1.98000002
-1.83333337
-1.68666673
-1.53999996
-1.39333332
-1.24666667
-1.10000002
-0.953333378
-0.806666672
-0.660000026
-0.513333321
-0.366666675
-0.220000029
-0.0733333826
-2.12666655
-1.98000002
-1.83333337
-1.68666673
-1.53999996
-1.39333344
-1.24666667
-1.10000002
-0.953333378
-0.806666732
-0.660000026
-0.51333338
-0.366666675
-0.220000029
-0.0733333826
0.0733333826
-1.98000002
-1.83333337
-1.68666673
-1.54000008
-1.39333332
-1.24666667
-1.10000002
-0.953333378
-0.806666732
-0.660000026
-0.513333321
-0.366666675
-0.220000029
-0.0733333826
0.0733332634
0.220000029
-1.83333337
-1.68666673
-1.53999996
-1.39333344
-1.24666667
-1.10000002
-0.953333378
-0.806666672
-0.660000026
-0.513333321
-0.366666675
-0.220000029
-0.0733333826
0.0733333826
0.219999909
0.366666675
-1.68666673
-1.53999996
-1.39333344
-1.24666667
-1.10000002
-0.953333378
-0.806666732
-0.660000026
-0.51333338
-0.366666675
-0.220000029
-0.0733333826
0.0733333826
0.219999909
0.366666675
0.513333321
-1.53999996
-1.39333332
-1.24666667
-1.10000002
-0.953333318
-0.806666672
-0.659999967
-0.513333321
-0.366666675
-0.220000029
-0.0733333826
0.0733333826
0.220000029
0.366666675
0.513333321
0.659999967
-1.39333344
-1.24666667
-1.10000002
-0.953333378
-0.806666672
-0.660000026
-0.513333321
-0.366666675
-0.220000029
-0.0733333826
0.0733333826
0.219999909
0.366666675
0.513333321
0.659999967
0.806666732
-1.24666667
-1.10000002
-0.953333378
-0.806666732
-0.660000026
-0.51333338
-0.366666675
-0.220000029
-0.0733333826
0.0733332634
0.219999909
0.366666675
0.513333321
0.659999967
0.806666613
0.953333259
-1.10000002
-0.953333318
-0.806666672
-0.660000026
-0.513333321
-0.366666675
-0.220000029
-0.0733333826
0.0733333826
0.220000029
0.366666675
0.513333321
0.659999967
0.806666732
0.953333259
1.10000002
-3.15333343
-3.00666666
-2.86000013
-2.71333337
-2.5666666
-2.42000008
-2.27333331
-2.12666678
-1.98000002
-1.83333325
-1.68666673
-1.53999996
-1.39333332
-1.24666667
-1.10000002
-0.953333318
-3.00666666
-2.79553342
-2.75021625
-2.5743885
-2.42547798
-2.30355215
-2.15291739
-2.02876067
-1.84842598
-1.63511324
-1.51062429
-1.35629129
-1.2595799
-1.07680523
-0.971042395
-0.806666613
-2.86000013
-2.70711064
-2.59517121
-2.46680164
-2.32189608
-2.17160916
-1.99748766
-1.87390649
-1.76426232
-1.54215419
-1.37550199
-1.19952011
-1.12366199
-0.959821463
-0.783982038
-0.659999967
-2.71333337
-2.5801959
-2.40757585
-2.32422781
-2.16153431
-2.06387615
-1.94736731
-1.82784235
-1.58763778
-1.4781388
-1.2543031
-1.1049633
-0.999040008
-0.833040774
-0.697608769
-0.513333321
-2.5666666
-2.44185972
-2.26202297
-2.24856067
-2.02636933
-1.84060919
-1.69294
-1.54697812
-1.44332838
-1.305305
-1.15740454
-0.990284622
-0.792187274
-0.762174428
-0.493050247
-0.366666615
-2.42000008
-2.2723465
-2.18413925
-1.93906951
-1.88381755
-1.6843313
-1.65589678
-1.52218091
-1.22384143
-1.1687398
-0.993836403
-0.867226541
-0.721310019
-0.515508533
-0.364512593
-0.219999969
-2.27333331
-2.09603834
-2.01349878
-1.79610479
-1.72160482
-1.49793291
-1.4983561
-1.23943055
-1.13783729
-0.940274417
-0.927005112
-0.774616897
-0.469610661
-0.353289723
-0.201031849
-0.073333323
-2.12666678
-2.01567268
-1.88771677
-1.77811968
-1.66835666
-1.42541003
-1.35283637
-1.33746243
-1.07066453
-0.869030118
-0.704982698
-0.564077556
-0.445058584
-0.239904851
-0.0568338931
0.073333323
-1.98000002
-1.86783421
-1.73786199
-1.60296798
-1.41083229
-1.42094052
-1.2476151
-1.17069173
-0.822883606
-0.705699027
-0.536398053
-0.333528519
-0.209773153
0.0188112538
0.168328285
0.220000088
-1.83333325
-1.74911773
-1.56950784
-1.50180876
-1.34903276
-1.21367073
-1.11294854
-0.967229366
-0.786290765
-0.570747912
-0.370222837
-0.252308011
-0.117328331
0.051726155
0.23162134
0.366666734
-1.68666673
-1.5133388
-1.4699837
-1.35765505
-1.18493342
-1.05624187
-0.899530351
-0.826925576
-0.626258731
-0.423553705
-0.00994741637
-0.158361062
0.174295321
0.242598653
0.377972901
0.51333338
-1.53999996
-1.39576495
-1.30819428
-1.1401788
-1.00376964
-0.917006075
-0.747419417
-0.531941056
-0.391427428
-0.228689492
-0.0127556184
0.0014448578
0.217911303
0.393689215
0.517850637
0.660000026
-1.39333332
-1.26525283
-1.13817525
-1.02116048
-0.898275495
-0.667117059
-0.545945525
-0.466856658
-0.241975158
-0.0449808128
0.126481563
0.268259078
0.402599335
0.531005144
0.671053171
0.806666672
-1.24666667
-1.15426362
-0.983769834
-0.801624119
-0.734173
-0.596451163
-0.464958727
-0.292125493
-0.0747404918
0.0453244224
0.173143163
0.322924167
0.488995254
0.637455046
0.8266415
0.953333437
-1.10000002
-0.982374787
-0.801063418
-0.632550955
-0.497511417
-0.357710481
-0.210731342
-0.149238542
0.10955961
0.203400284
0.325984776
0.539779425
0.675369799
0.816606224
0.964702427
1.0999999
-0.953333318
-0.806666613
-0.659999967
-0.513333321
-0.366666615
-0.219999969
-0.073333323
0.073333323
0.220000088
0.366666734
0.51333338
0.660000026
0.806666672
0.953333437
1.0999999
1.24666667
-3.00666666
-2.8599999
-2.71333337
-2.5666666
-2.42000008
-2.27333331
-2.12666678
-1.98000002
-1.83333325
-1.68666673
-1.53999996
-1.39333344
-1.24666667
-1.10000002
-0.953333378
-0.806666672
-2.8599999
-2.70896459
-2.58014464
-2.40816617
-2.34971809
-2.14408898
-2.02878213
-1.89841557
-1.59987891
-1.58329272
-1.33290565
-1.1979841
-1.10112154
-0.990492046
-0.782465756
-0.659999967
-2.71333337
-2.59874177
-2.47053289
-2.24264336
-2.18063712
-2.03830433
-1.88486826
-1.78560305
-1.53478396
-1.50572789
-1.30132973
-1.07217383
-1.07044709
-0.838304937
-0.653790414
-0.513333321
-2.5666666
-2.50955701
-2.30463099
-2.11641908
-2.13795543
-1.94528353
-1.84149981
-1.59921932
-1.61476672
-1.30666971
-1.23045027
-1.06353712
-0.83706218
-0.714390397
-0.500222206
-0.366666675
-2.42000008
-2.34870696
-2.14790702
-2.07799554
-1.94569325
-1.86430037
-1.61649942
-1.5263232
-1.39654493
-1.1455313
-1.01530683
-0.786447346
-0.723522723
-0.426315904
-0.38247183
-0.219999969
-2.27333331
-2.1342752
-2.07712293
-1.93492985
-1.89067817
-1.66692734
-1.48944449
-1.36776757
-1.14316261
-1.10631776
-0.960609674
-0.782221615
-0.496727258
-0.433509678
-0.229644686
-0.073333323
-2.12666678
-2.02737594
-1.88872945
-1.85788822
-1.71363223
-1.74054062
-1.34429133
-1.1458782
-1.12336004
-0.81218797
-0.582861185
-0.58788389
-0.285047889
-0.161812797
-0.0913314074
0.073333323
-1.98000002
-1.84467614
-1.76791275
-1.68250775
-1.63499093
-1.51683724
-1.25894153
-1.2428447
-0.950974882
-0.726578176
-0.641104877
-0.510186374
-0.179064319
-0.0102230217
0.135000274
0.219999969
-1.83333325
-1.7838285
-1.73788548
-1.50142133
-1.3423084
-1.26835394
-1.34207392
-1.00807142
-0.967117071
-0.70874536
-0.269678205
-0.32401076
-0.140806124
0.0434100479
0.161952123
0.366666734
-1.68666673
-1.52120113
-1.29945624
-1.45977008
-1.22885609
-1.084975
-1.18364978
-0.944910407
-0.866212487
-0.50914973
-0.234995157
-0.0341484211
0.0221893787
0.332668513
0.348200649
0.51333338
-1.53999996
-1.43835354
-1.24030626
-1.22264111
-1.168082
-1.15215778
-0.847273588
-0.776575625
-0.636326611
-0.270799965
-0.0555103756
0.0951068923
0.159896582
0.271779567
0.544469297
0.660000026
-1.39333344
-1.19918931
-1.18174708
-1.06784999
-1.07384908
-0.891831219
-0.650853813
-0.64412123
-0.241510034
-0.0199332852
-0.00631383946
0.176160514
0.315314293
0.48417449
0.652285814
0.806666672
-1.24666667
-1.09131145
-1.11817527
-0.976997554
-0.75393033
-0.625044644
-0.531535566
-0.245900586
-0.0884472728
0.0891302302
0.223602369
0.485732764
0.541292667
0.666514814
0.80349642
0.953333318
-1.10000002
-0.97429806
-0.899631441
-0.800705731
-0.599904478
-0.397675484
-0.287850708
-0.0925967991
0.0396306738
0.336135089
0.378866404
0.498921841
0.614610732
0.767859161
0.922914863
1.10000014
-0.953333378
-0.799259603
-0.654281378
-0.471698791
-0.346025139
-0.177043408
-0.0735280588
0.0737985447
0.285090566
0.40137592
0.498098701
0.620579422
0.897152483
1.0118711
1.11827302
1.24666667
-0.806666672
-0.659999967
-0.513333321
-0.366666675
-0.219999969
-0.073333323
0.073333323
0.219999969
0.366666734
0.51333338
0.660000026
0.806666672
0.953333318
1.10000014
1.24666667
1.39333344
-2.86000013
-2.71333337
-2.56666684
-2.42000008
-2.27333331
-2.12666678
-1.98000002
-1.83333349
-1.68666673
-1.53999996
-1.39333344
-1.24666667
-1.10000002
-0.953333378
-0.806666732
-0.660000026
-2.71333337
-2.59500957
-2.39345622
-2.30434966
-2.08736277
-1.97252035
-1.88774192
-1.77629519
-1.64221382
-1.44594812
-1.21149075
-1.05707312
-1.03899443
-0.807476938
-0.676537871
-0.513333321
-2.56666684
-2.38638163
-2.35845923
-2.24971414
-2.11484432
-1.97681499
-1.82479668
-1.69873571
-1.56259346
-1.30735338
-1.17701328
-0.918945372
-0.913402319
-0.673783243
-0.597252488
-0.366666675
-2.42000008
-2.32578778
-2.16562295
-2.05837178
-1.98336184
-1.81463826
-1.52592027
-1.47394741
-1.48732567
-1.16732502
-1.21227038
-1.00874412
-0.679451466
-0.578404009
-0.280462176
-0.220000029
-2.27333331
-2.1726768
-2.09679604
-1.90728247
-1.82303607
-1.86804211
-1.62180758
-1.38764572
-1.29610097
-1.19145882
-1.00553858
-0.655160666
-0.597072244
-0.295945883
-0.137240067
-0.073333323
-2.12666678
-2.0199976
-1.87395942
-1.73134625
-1.80699742
-1.61055696
-1.51523399
-1.33076859
-1.08225846
-1.01035702
-0.712502956
-0.572861671
-0.332491785
-0.136972457
-0.0969085097
0.073333323
-1.98000002
-1.79117811
-1.87222362
-1.70967031
-1.53307366
-1.54481459
-1.47730315
-1.29751468
-1.2398293
-0.791023254
-0.624882877
-0.431730479
-0.247318164
0.0255361143
0.0565648153
0.219999969
-1.83333349
-1.7371726
-1.61039698
-1.56336486
-1.48351192
-1.53812742
-1.38004315
-1.05960619
-0.970599949
-0.606776536
-0.383067608
-0.0529218726
-0.136977777
0.0720495209
0.197830766
0.366666615
-1.68666673
-1.69345212
-1.50199378
-1.46681309
-1.48409307
-1.30942798
-1.33106601
-1.19865334
-0.911072791
-0.668401062
-0.299755663
-0.358110845
-0.0495676957
0.312476188
0.36738348
0.51333338
-1.53999996
-1.48763454
-1.25347245
-1.32386625
-1.12358463
-1.26746202
-1.20555103
-1.17922986
-1.01254916
-0.655201674
-0.363241017
0.00268051773
0.245414525
0.31599322
0.5616225
0.660000026
-1.39333344
-1.24410892
-1.18204713
-1.22944963
-1.02645683
-1.12279582
-0.936172307
-0.710509419
-0.442177385
-0.207339272
0.127081275
0.161997348
0.377977997
0.50632602
0.730493009
0.806666672
-1.24666667
-1.16237485
-1.03144455
-0.961001217
-0.823981702
-0.77578932
-0.7471627
-0.522293627
-0.171028957
0.00171788444
0.247888044
0.400972307
0.494593382
0.736819744
0.879948795
0.953333318
-1.10000002
-1.03214884
-0.915262163
-0.791080117
-0.598547578
-0.727058768
-0.525977731
-0.195871323
-0.143589661
0.195045471
0.292583257
0.518936992
0.771934748
0.774871528
0.948454678
1.0999999
-0.953333378
-0.862473547
-0.68778497
-0.560136259
-0.499947667
-0.307855815
-0.108687736
0.156723619
0.152517498
0.502450347
0.408829898
0.736795723
0.921955645
0.867056787
1.11713791
1.24666667
-0.806666732
-0.662406802
-0.530740917
-0.384591669
-0.21366559
-0.200928047
-0.0238206424
0.210821196
0.375141501
0.565661728
0.747809649
0.811876416
1.04206991
1.20730436
1.24628294
1.3933332
-0.660000026
-0.513333321
-0.366666675
-0.220000029
-0.073333323
0.073333323
0.219999969
0.366666615
0.51333338
0.660000026
0.806666672
0.953333318
1.0999999
1.24666667
1.3933332
1.53999996
-2.71333337
-2.5666666
-2.42000008
-2.27333331
-2.12666655
-1.98000002
-1.83333337
-1.68666673
-1.53999996
-1.39333332
-1.24666667
-1.10000002
-0.953333318
-0.806666672
-0.660000026
-0.513333321
-2.5666666
-2.41659355
-2.21342802
-2.18809676
-1.97608626
-1.85415149
-1.80528533
-1.60094476
-1.39224195
-1.30289936
-1.04527056
-1.01502395
-0.827180207
-0.59799093
-0.491264522
-0.366666615
-2.42000008
-2.30971551
-2.12343264
-2.05784726
-1.93667185
-1.80183721
-1.63546908
-1.46594417
-1.40413618
-1.08942127
-1.04634666
-0.769846678
-0.707780719
-0.462334961
-0.381727844
-0.219999969
-2.27333331
-2.18227482
-2.043854
-2.0799489
-1.89131057
-1.76036274
-1.73636425
-1.48538435
-1.34364867
-0.91529572
-0.934593618
-0.693281174
-0.542407513
-0.356071323
-0.162149742
-0.073333323
-2.12666655
-1.97278905
-1.95946777
-1.82323754
-1.63454807
-1.68967831
-1.52125335
-1.26542449
-1.11313021
-0.953530669
-0.813672125
-0.642342687
-0.434749782
-0.357365876
-0.0740609765
0.0733333826
-1.98000002
-1.88025141
-1.82912898
-1.81975222
-1.81589413
-1.4378221
-1.55415428
-1.41397071
-1.13754535
-1.07149971
-0.580103219
-0.447334558
-0.0752689689
-0.0691058487
0.080729723
0.220000029
-1.83333337
-1.77654469
-1.70264637
-1.70383477
-1.42880118
-1.32396376
-1.46018732
-1.10200989
-0.983679414
-0.747648835
-0.435390562
-0.287878215
-0.00324624241
0.0882882178
0.133230492
0.366666675
-1.68666673
-1.54623079
-1.67116022
-1.60559177
-1.36335528
-1.47897816
-1.32274127
-1.28524399
-0.897579908
-0.44032073
-0.461150497
-0.122236095
0.0500796996
0.305482656
0.352590531
0.513333321
-1.53999996
-1.50282896
-1.26933539
-1.39878523
-1.44371593
-1.40587139
-1.4309665
-1.53741038
-0.920527577
-0.266887724
-0.0654191673
0.0332977623
0.302810401
0.29282093
0.634173393
0.660000086
-1.39333332
-1.26669061
-1.29146147
-1.14157569
-1.29505217
-1.28908515
nan
nan
nan
nan
0.150919601
0.30394116
0.522933662
0.522367418
0.771252096
0.806666732
-1.24666667
-1.04598713
-0.977826357
-0.907718182
-0.786119044
-1.03999698
nan
nan
nan
nan
0.386240453
0.44999963
0.555272877
0.747681916
0.818283141
0.953333378
-1.10000002
-0.962311029
-0.958993733
-0.994559109
-0.770039201
-0.72371918
nan
nan
nan
nan
0.629606009
0.495134205
0.646065056
0.924725235
0.94209826
1.10000002
-0.953333318
-0.873538911
-0.714120746
-0.685912669
-0.458147556
-0.48443383
-0.412596941
-0.236274943
-0.0452808142
0.443725526
0.714688241
0.787885606
0.796506107
0.960953414
1.14649379
1.24666667
-0.806666672
-0.638840854
-0.590469718
-0.467638791
-0.388375342
-0.254650563
-0.0772137046
0.0807112083
0.360915035
0.621781945
0.656497657
0.909526408
1.06269038
1.12357461
1.27037716
1.39333344
-0.660000026
-0.478981853
-0.32870701
-0.283149213
-0.113721475
0.0444598868
0.162547156
0.299647748
0.609680772
0.725519717
0.833589196
1.03157055
1.09120607
1.26987755
1.41896045
1.53999996
-0.513333321
-0.366666615
-0.219999969
-0.073333323
0.0733333826
0.220000029
0.366666675
0.513333321
0.660000086
0.806666732
0.953333378
1.10000002
1.24666667
1.39333344
1.53999996
1.68666673
-2.5666666
-2.42000008
-2.27333355
-2.12666655
-1.98000002
-1.83333337
-1.68666673
-1.54000008
-1.39333332
-1.24666667
-1.10000002
-0.953333378
-0.806666672
-0.660000026
-0.51333338
-0.366666675
-2.42000008
-2.24039102
-2.17733788
-2.0676198
-1.86477816
-1.6501869
-1.69213974
-1.48016465
-1.3357569
-1.17231107
-0.995007992
-0.885172129
-0.673306644
-0.527981699
-0.313829333
-0.219999969
-2.27333355
-2.20270705
-2.03226638
-1.88071775
-1.8411057
-1.67126
-1.53113806
-1.5452143
-1.32265234
-1.05539548
-0.881198764
-0.587480009
-0.444922417
-0.307520449
-0.165070266
-0.073333323
-2.12666655
-2.04500031
-1.86950386
-1.86375713
-1.78565657
-1.74360037
-1.46579194
-1.35963249
-1.34204698
-1.00259113
-0.788930893
-0.492673576
-0.378037661
-0.267079264
-0.0202914849
0.073333323
-1.98000002
-1.90082324
-1.7751435
-1.6995368
-1.73672771
-1.53263855
-1.42301214
-1.39947653
-1.12122548
-0.950121522
-0.755048215
-0.321839601
-0.318957388
-0.182232469
0.150654703
0.220000029
-1.83333337
-1.67926919
-1.6756717
-1.56508851
-1.56014359
-1.4942894
-1.57662547
-1.1541456
-1.04841018
-0.671681166
-0.779038966
-0.234191909
-0.253237605
0.0518708006
0.303875268
0.366666675
-1.68666673
-1.59465837
-1.55074203
-1.53972697
-1.42712605
-1.54801679
-1.35138035
-1.22416842
-0.884261847
-0.64457643
-0.330588907
-0.2226367
-0.11351572
0.0804717317
0.40301621
0.513333321
-1.54000008
-1.53004181
-1.37322342
-1.42458057
-1.24188912
-1.48811352
-1.4355458
-1.2207315
-0.722976863
-0.431265771
-0.148716345
0.0866730362
0.29406786
0.333496064
0.533565879
0.659999967
-1.39333332
-1.38336754
-1.27242994
-1.30951583
-1.23194635
-1.21100712
-1.28752935
-1.31959498
-0.785205781
-0.325842202
0.344304055
0.276325494
0.466550469
0.55690676
0.715078175
0.806666732
-1.24666667
-1.13931632
-1.22224844
-1.11707747
-1.03012478
-1.13557684
nan
nan
nan
nan
0.37698251
0.598655283
0.679616451
0.858121932
0.932076871
0.953333378
-1.10000002
-1.04519141
-0.906038344
-0.947978377
-0.933253109
-0.845420837
nan
nan
nan
nan
0.595141113
0.798559606
0.847542822
0.941577077
0.998084009
1.10000002
-0.953333378
-0.928065181
-0.720949769
-0.58822614
-0.753831685
-0.576150835
nan
nan
nan
nan
0.849035323
1.00779712
0.982721388
1.08517575
1.11932385
1.24666667
-0.806666672
-0.758063078
-0.578008056
-0.634066463
-0.480007559
-0.481399566
nan
nan
nan
nan
0.810181618
0.869142234
1.13858831
1.13961005
1.2659682
1.39333332
-0.660000026
-0.58414191
-0.413985074
-0.222693384
-0.174111933
-0.147775695
0.0776304007
nan
nan
0.7949754
0.996011615
1.02567363
1.31365609
1.3117913
1.38205814
1.54000008
-0.51333338
-0.376560479
-0.241837323
-0.140561163
-0.0145756556
0.217221648
0.340730965
0.58683604
0.637291014
0.845569015
1.06039643
1.28220308
1.33770049
1.3579247
1.56678295
1.68666661
-0.366666675
-0.219999969
-0.073333323
0.073333323
0.220000029
0.366666675
0.513333321
0.659999967
0.806666732
0.953333378
1.10000002
1.24666667
1.39333332
1.54000008
1.68666661
1.83333337
-2.42000008
-2.27333331
-2.12666678
-1.98000002
-1.83333337
-1.68666673
-1.54000008
-1.39333344
-1.24666667
-1.10000002
-0.953333378
-0.806666732
-0.659999967
-0.513333321
-0.366666704
-0.219999999
-2.27333331
-2.18746948
-2.02818084
-1.92225611
-1.7407639
-1.68488908
-1.54299915
-1.51983356
-1.25705588
-1.07433307
-0.875049055
-0.741216481
-0.475293934
-0.364416838
-0.186529592
-0.0733332932
-2.12666678
-1.95442736
-1.88555908
-1.9346596
-1.63016629
-1.74057579
-1.55385172
-1.38128376
-1.08305144
-1.01112068
-0.873265564
-0.516736686
-0.443584502
-0.293204963
-0.0367166921
0.0733333528
-1.98000002
-1.83406568
-1.76273263
-1.73166823
-1.75926816
-1.56307769
-1.48145902
-1.34769213
-1.24086297
-1.07955563
-0.622467756
-0.442001313
-0.308967918
0.0647046417
0.0580280498
0.219999999
-1.83333337
-1.77315593
-1.7033205
-1.59708977
-1.482512
-1.62777185
-1.64725339
-1.45528805
-1.03933036
-1.07680261
-0.668961585
-0.208065495
-0.208491445
0.095775798
0.219583035
0.366666704
-1.68666673
-1.63619816
-1.59150267
-1.47599053
-1.54695773
-1.43258595
-1.54353583
-1.44474196
-1.47937357
-0.730919123
-0.189985767
-0.152216494
0.0968859196
0.311164379
0.448651969
0.513333321
-1.54000008
-1.56975746
-1.50824308
-1.42130792
-1.34076381
-1.34717286
-1.64059198
-1.5774864
-1.11165285
-0.72246033
-0.278242558
0.208371416
0.235536352
0.457766533
0.585568726
0.659999967
-1.39333344
-1.31858337
-1.35739386
-1.40293884
-1.34559011
-1.42002094
-1.3466804
-1.48182178
-0.920901716
-0.286484748
0.00884130504
0.252933323
0.51151973
0.746667325
0.727755904
0.806666613
-1.24666667
-1.27468312
-1.25959337
-1.01264238
-1.17358196
-1.32530272
-1.13609302
nan
nan
0.232777432
0.545533121
0.722066641
0.750091732
0.768649757
0.894074738
0.953333378
-1.10000002
-1.06973267
-0.946112156
-0.846612573
-0.881497562
-0.981171548
-1.26794934
nan
nan
0.812745273
0.783165038
0.625630975
0.746092796
0.828665078
1.0388149
1.10000002
-0.953333378
-0.867327094
-0.873696268
-0.776189148
-0.697712481
-0.957367718
nan
nan
nan
nan
1.05746067
0.835766912
0.971693754
1.05250859
1.13338375
1.24666667
-0.806666732
-0.624756217
-0.451140404
-0.516904891
-0.529741645
-0.643596351
nan
nan
nan
nan
1.21178305
1.22270203
1.15657055
1.0803026
1.27943516
1.39333332
-0.659999967
-0.569543064
-0.569835067
-0.332732052
-0.378647417
nan
nan
nan
nan
nan
nan
1.20540643
1.21955514
1.47080624
1.46192372
1.53999996
-0.513333321
-0.403933674
-0.305882961
-0.30110389
0.0102775777
0.24433209
0.579757094
nan
nan
1.44586158
1.32690942
1.39124858
1.42469442
1.46879315
1.59803867
1.68666673
-0.366666704
-0.300829291
-0.0950361714
0.041913446
0.206536025
0.381043404
0.578014314
0.893960774
1.06330442
1.28399551
1.27063
1.32992339
1.46536708
1.56585932
1.72695422
1.83333325
-0.219999999
-0.0733332932
0.0733333528
0.219999999
0.366666704
0.513333321
0.659999967
0.806666613
0.953333378
1.10000002
1.24666667
1.39333332
1.53999996
1.68666673
1.83333325
1.98000002
-2.27333331
-2.12666655
-1.98000014
-1.83333337
-1.68666673
-1.54000008
-1.39333344
-1.24666679
-1.10000002
-0.953333318
-0.806666672
-0.660000026
-0.513333321
-0.366666675
-0.220000029
-0.0733333305
-2.12666655
-1.98858607
-1.8513689
-1.7022208
-1.67869556
-1.5580864
-1.29259038
-1.26251459
-0.977568626
-0.907723904
-0.785206735
-0.505815387
-0.405247211
-0.159504771
-0.0334934629
0.0733333752
-1.98000014
-1.88920045
-1.79326737
-1.70530248
-1.58847845
-1.59682941
-1.27928615
-1.32519555
-0.999847174
-0.884233892
-0.687286437
-0.377375275
-0.347665876
-0.00851061195
0.0450643152
0.220000029
-1.83333337
-1.79204857
-1.74866152
-1.59989643
-1.5988363
-1.74256432
nan
-1.24725223
-1.28141606
nan
-0.543572783
-0.40367201
-0.00927804131
0.0654861629
0.207168803
0.366666675
-1.68666673
-1.6706183
-1.45859945
-1.44015694
-1.52049434
-1.68028367
nan
-1.39009953
-1.4087137
nan
-0.236690402
-0.0518042669
0.148380652
0.292259157
0.343937546
0.51333338
-1.54000008
-1.50078225
-1.43402398
-1.32897842
-1.49175239
-1.61176097
nan
-1.54425311
-1.56414008
nan
-0.100508332
0.284690082
0.203325331
0.539265215
0.534735799
0.660000026
-1.39333344
-1.35350168
-1.36619103
-1.24098408
-1.44047415
-1.44182658
nan
nan
nan
nan
0.444870383
0.411031216
0.617534518
0.551980495
0.712910175
0.806666672
-1.24666679
-1.25013876
-1.22268271
-1.08219004
-1.278337
-1.35408485
nan
nan
nan
nan
0.493166417
0.494033366
0.787260413
0.732298672
0.80912149
0.953333318
-1.10000002
-1.00615644
-0.912256896
-1.02434397
-0.818100154
-0.837422192
nan
nan
nan
nan
0.886901975
0.830444753
0.798118174
1.03056037
1.03203571
1.10000002
-0.953333318
-0.887944102
-0.868346512
-0.636035204
-0.599511623
-0.770214975
-0.919525564
nan
nan
1.01812649
0.973725855
1.20883203
1.02085459
1.13088691
1.1354661
1.24666667
-0.806666672
-0.778850973
-0.728343606
-0.443010509
-0.296815187
-0.330492675
nan
nan
nan
nan
1.20136988
1.24881494
1.22721267
1.33674121
1.30852914
1.39333332
-0.660000026
-0.54034549
-0.516295969
-0.099716872
-0.220060736
-0.206634954
nan
nan
nan
nan
1.33974171
1.3106091
1.32413745
1.47043586
1.52759588
1.53999996
-0.513333321
-0.396041304
-0.142626747
-0.266620815
-0.118592754
0.3287521
0.7174505
nan
nan
1.59526587
1.6611867
1.52813375
1.45318651
1.61447716
1.58835042
1.68666661
-0.366666675
-0.236077845
-0.0968791991
0.093249172
0.346045583
0.519965112
0.874504328
1.14704633
1.48856068
1.54294932
1.49373007
1.43772757
1.48429179
1.57119048
1.79560673
1.83333337
-0.220000029
0.0300454926
0.0118418122
0.157185256
0.273778826
0.466139436
0.696359515
0.933986187
1.17006719
1.42859983
1.50252604
1.54562616
1.60226834
1.67075086
1.88047206
1.9799999
-0.0733333305
0.0733333752
0.220000029
0.366666675
0.51333338
0.660000026
0.806666672
0.953333318
1.10000002
1.24666667
1.39333332
1.53999996
1.68666661
1.83333337
1.9799999
2.12666678
-2.12666678
-1.9799999
-1.83333337
-1.68666661
-1.53999996
-1.39333332
-1.24666667
-1.10000002
-0.953333318
-0.806666672
-0.660000026
-0.51333338
-0.366666675
-0.220000029
-0.0733333752
0.0733333305
-1.9799999
-1.84986961
-1.74527538
-1.61779892
-1.48911572
-1.38244998
-1.23344302
-1.02511954
-0.945388615
-0.91722399
-0.622281253
-0.503554523
-0.189549163
-0.0479918942
0.0743247271
0.220000029
-1.83333337
-1.74653685
-1.72151589
-1.53060794
-1.37642729
-1.48557425
-1.19304872
-1.12259257
-1.00216365
-0.844222128
-0.461645484
-0.187126189
0.0242378023
0.028613314
0.288115114
0.366666675
-1.68666661
-1.61617577
-1.48431492
-1.49619305
-1.5008328
-1.59748566
nan
-1.09399509
-0.918725312
nan
-0.257941186
-0.13782832
0.182574496
0.370867461
0.38862288
0.513333321
-1.53999996
-1.43166566
-1.42393696
-1.51806676
-1.52066004
nan
nan
-1.01437557
-1.37143314
nan
nan
0.30770576
0.492773831
0.458895057
0.683899939
0.660000026
-1.39333332
-1.39091146
-1.25104654
-1.30227864
-1.31715345
nan
nan
nan
nan
nan
nan
0.501810133
0.582766294
0.490879148
0.658259511
0.806666672
-1.24666667
-1.18392038
-1.13427997
-1.15349329
-1.03814816
nan
nan
nan
nan
nan
nan
0.568469346
0.695416391
0.706359267
0.878391743
0.953333318
-1.10000002
-1.09946537
-0.938972831
-0.920047939
-1.00463796
-1.01275015
nan
nan
nan
nan
1.06143725
0.958577335
0.830929756
1.03118372
1.05450416
1.10000002
-0.953333318
-0.965470791
-0.903669894
-0.8072927
-0.89134717
-0.720061064
nan
nan
nan
nan
1.24390113
1.2278229
1.19493294
1.20637739
1.1457324
1.24666679
-0.806666672
-0.757300138
-0.714696944
-0.414427012
-0.198985204
-0.361970842
nan
nan
nan
nan
1.27854919
1.11517203
1.18596506
1.07394326
1.23237193
1.39333344
-0.660000026
-0.568915367
-0.41820243
-0.42887032
-0.0943418965
-0.264453948
0.23280406
0.963607728
1.63553357
1.498106
1.3556478
1.38103151
1.36316359
1.44062495
1.46489155
1.54000008
-0.51333338
-0.477138072
-0.230312541
-0.154591769
0.0553850122
0.223827332
0.576989591
1.22765255
1.66015732
1.4699775
1.49137235
1.39419198
1.39850938
1.38095927
1.60155582
1.68666673
-0.366666675
-0.208879471
-0.124177858
0.161358818
0.28996399
0.474810243
0.762932956
0.952276051
1.40430748
1.64623082
1.57801926
1.74738324
1.49078774
1.72977436
1.68717921
1.83333337
-0.220000029
-0.149855748
0.0837288126
0.267193347
0.156449512
0.614346147
0.796128631
1.18883622
1.27254534
1.55591977
1.72228837
1.61381972
1.76496303
1.85341978
1.88518929
1.98000014
-0.0733333752
0.0839193687
0.162007108
0.364706069
0.654234827
0.685539663
0.98822552
0.949554324
1.30020106
1.47889102
1.46060646
1.61766875
1.74906659
1.85766029
1.99432516
2.12666655
0.0733333305
0.220000029
0.366666675
0.513333321
0.660000026
0.806666672
0.953333318
1.10000002
1.24666679
1.39333344
1.54000008
1.68666673
1.83333337
1.98000014
2.12666655
2.27333331
-1.98000002
-1.83333325
-1.68666673
-1.53999996
-1.39333332
-1.24666667
-1.10000002
-0.953333378
-0.806666613
-0.659999967
-0.513333321
-0.366666704
-0.219999999
-0.0733333528
0.0733332932
0.219999999
-1.83333325
-1.74424541
-1.57003617
-1.42242146
-1.36315608
-1.19074404
-1.12485838
-0.870542645
-0.798913956
-0.692563117
-0.385753453
-0.150327235
-0.063957803
0.10193225
0.230461165
0.366666704
-1.68666673
-1.59135044
-1.55515289
-1.32036698
-1.36867332
-1.10150266
-1.03825283
-0.951428771
-0.757951319
-0.695576847
-0.0731744766
-0.0373474546
-0.0167668834
0.181520388
0.3599419
0.513333321
-1.53999996
-1.46951759
-1.38148308
-1.28372419
-1.26257718
-1.17976511
-0.989330232
-0.901989341
-0.825579941
-0.331451029
0.0315282121
0.168178067
0.212708533
0.472763777
0.458326966
0.659999967
-1.39333332
-1.34706759
-1.26827216
-1.176283
-1.26652253
-1.3580693
-1.07267332
-1.18744111
-0.996634543
-0.20148693
0.22052972
0.378163397
0.57616502
0.577389359
0.694325507
0.806666732
-1.24666667
-1.17753875
-1.165277
-1.0702244
-1.31549919
-1.20318472
nan
nan
nan
nan
0.759839058
0.72009474
0.79043442
0.903233469
0.88464731
0.953333378
-1.10000002
-0.977754712
-0.974741578
-0.985661685
-1.05333817
nan
nan
nan
nan
nan
nan
0.785297692
0.878351748
1.01878965
0.940954208
1.10000002
-0.953333378
-0.901389301
-0.823547781
-0.78489536
-1.06475389
nan
nan
nan
nan
nan
nan
1.15706909
1.17485297
1.07076108
1.09063959
1.24666667
-0.806666613
-0.703178465
-0.675902128
-0.711744666
-0.637594163
-0.434547335
nan
nan
nan
nan
1.70066321
1.33052146
1.4126091
1.3515538
1.40530431
1.39333344
-0.659999967
-0.495735317
-0.359887302
-0.283943027
-0.349431604
-0.132202372
nan
nan
nan
nan
1.70076585
1.37501454
1.32293284
1.3928802
1.52616596
1.54000008
-0.513333321
-0.479003638
-0.417869151
-0.44119367
-0.131804749
0.263849735
0.632183433
1.03866637
1.53367114
1.57201803
1.66281104
1.67759967
1.81944036
1.5515846
1.62530684
1.68666673
-0.366666704
-0.192392483
-0.213148996
-0.170580536
0.244332507
0.327884883
0.723319948
0.996664345
1.50373232
1.72404611
1.68493152
1.59954751
1.60521054
1.64755595
1.67671168
1.83333337
-0.219999999
-0.0943480283
-0.0637061074
0.235715732
0.504967391
0.473892212
0.975470245
1.09331894
1.5377928
1.57911444
1.75423551
1.63905287
1.54877317
1.81963325
1.94171882
1.98000002
-0.0733333528
0.0365711898
0.135231018
0.526447475
0.590001225
0.946332037
0.870647669
1.30312979
1.38764155
1.40187395
1.65249145
1.69320893
1.83051765
1.89628708
2.03851533
2.12666678
0.0733332932
0.223753288
0.377840817
0.555533409
0.610499501
0.910480797
0.975157678
1.27452779
1.39170134
1.59346759
1.63983572
1.73482132