# vtk DataFile Version 3.0
WoSt boundary bias detector
ASCII
DATASET STRUCTURED_POINTS
DIMENSIONS 16 16 16
ORIGIN -0.22 -0.22 -0.22
SPACING 0.029333333 0.029333333 0.029333333
POINT_DATA 4096
SCALARS solution_epsilon float 1
LOOKUP_TABLE default
-0.65999997
-0.63066661
-0.60133338
-0.57200003
-0.54266667
-0.51333332
-0.484
-0.45466667
-0.42533332
-0.396
-0.36666667
-0.33733335
-0.308
-0.27866668
-0.24933335
-0.22
-0.63066661
-0.60133332
-0.57200003
-0.54266667
-0.51333332
-0.484
-0.45466667
-0.42533332
-0.396
-0.36666667
-0.33733332
-0.30800003
-0.27866668
-0.24933334
-0.22000001
-0.19066666
-0.60133338
-0.57200003
-0.54266667
-0.51333332
-0.484
-0.45466667
-0.42533332
-0.39600003
-0.36666667
-0.33733332
-0.30800003
-0.27866668
-0.24933334
-0.22000001
-0.19066669
-0.16133334
-0.57200003
-0.54266667
-0.51333332
-0.484
-0.45466667
-0.42533332
-0.396
-0.36666667
-0.33733332
-0.308
-0.27866668
-0.24933335
-0.22
-0.19066668
-0.16133335
-0.132
-0.54266667
-0.51333332
-0.484
-0.45466667
-0.42533332
-0.396
-0.36666667
-0.33733335
-0.308
-0.27866668
-0.24933335
-0.22000003
-0.19066668
-0.16133335
-0.13200003
-0.10266667
-0.51333332
-0.484
nan
-0.42533332
-0.396
-0.36666667
-0.33733332
-0.30800003
-0.27866668
-0.24933334
-0.22000001
-0.19066669
-0.16133334
-0.13200001
-0.10266669
-0.073333338
-0.484
-0.45466667
-0.42533332
-0.396
-0.36666667
-0.33733332
-0.308
-0.27866668
-0.24933334
-0.22
-0.19066668
-0.16133335
-0.132
-0.10266668
-0.073333353
-0.044
-0.45466667
-0.42533332
-0.39600003
-0.36666667
-0.33733335
-0.30800003
-0.27866668
-0.24933335
-0.22000001
-0.19066668
-0.16133335
-0.13200003
-0.10266668
-0.073333353
-0.04400003
-0.014666677
-0.42533332
-0.396
-0.36666667
-0.33733332
-0.308
-0.27866668
-0.24933334
-0.22000001
-0.19066668
-0.16133334
-0.13200001
-0.10266669
-0.073333338
-0.044000015
-0.014666691
0.014666662
-0.396
-0.36666667
-0.33733332
-0.308
-0.27866668
-0.24933334
-0.22
-0.19066668
-0.16133334
-0.132
-0.10266668
-0.073333353
-0.044
-0.014666677
0.014666647
0.044
-0.36666667
-0.33733332
-0.30800003
-0.27866668
-0.24933335
-0.22000001
-0.19066668
-0.16133335
-0.13200001
-0.10266668
-0.073333353
-0.04400003
-0.014666677
0.014666647
0.04399997
0.073333323
-0.33733335
-0.30800003
-0.27866668
-0.24933335
-0.22000003
-0.19066669
-0.16133335
-0.13200003
-0.10266669
-0.073333353
-0.04400003
-0.014666706
0.014666647
0.04399997
0.073333293
0.10266665
-0.308
-0.27866668
-0.24933334
-0.22
-0.19066668
-0.16133334
-0.132
-0.10266668
-0.073333338
-0.044
-0.014666677
0.014666647
0.044
0.073333323
0.10266665
0.132
-0.27866668
-0.24933334
-0.22000001
-0.19066668
-0.16133335
-0.13200001
-0.10266668
-0.073333353
-0.044000015
-0.014666677
0.014666647
0.04399997
0.073333323
0.10266665
0.13199997
0.16133332
-0.24933335
-0.22000001
-0.19066669
-0.16133335
-0.13200003
-0.10266669
-0.073333353
-0.04400003
-0.014666691
0.014666647
0.04399997
0.073333293
0.10266665
0.13199997
0.16133329
0.19066665
-0.22
-0.19066666
-0.16133334
-0.132
-0.10266667
-0.073333338
-0.044
-0.014666677
0.014666662
0.044
0.073333323
0.10266665
0.132
0.16133332
0.19066665
0.22
-0.63066667
-0.60133332
-0.57200003
-0.54266667
-0.51333332
-0.48400003
-0.45466667
-0.42533332
-0.396
-0.36666667
-0.33733332
-0.30800003
-0.27866668
-0.24933334
-0.22000001
-0.19066666
-0.60133332
-0.57234228
-0.54510224
-0.51522589
-0.47023711
-0.45519471
-0.4246473
-0.40348786
-0.38057965
-0.35166365
-0.30354011
-0.27610296
-0.25648782
-0.22477183
-0.19439587
-0.16133332
-0.57200003
-0.55054986
-0.51893222
-0.4872531
-0.45785671
-0.43619311
-0.38203874
-0.3777737
-0.34420675
-0.30046126
-0.29046282
-0.25132453
-0.21394864
-0.18594101
-0.15795106
-0.132
-0.54266667
-0.51448333
-0.48396748
-0.47376728
-0.41283101
-0.40696806
-0.36906463
-0.34942573
-0.31324881
-0.27399957
-0.23576972
-0.22403944
-0.19972602
-0.16801515
-0.12809536
-0.10266666
-0.51333332
-0.48712987
-0.45508808
-0.41903344
-0.39115721
-0.36484948
-0.34180272
-0.30956319
-0.26673171
-0.24751817
-0.22443727
-0.19887578
-0.16576162
-0.13414939
-0.10316725
-0.07333333
-0.48400003
-0.47086903
-0.43497616
-0.39197239
-0.38660017
-0.3519097
-0.32215005
-0.29691836
-0.25363687
-0.21650627
-0.19045638
-0.16043448
-0.14601731
-0.10956239
-0.070389643
-0.044
-0.45466667
-0.42185932
-0.3936137
-0.3590892
-0.34329185
-0.32169655
-0.28425777
-0.26123148
-0.22164339
-0.17940688
-0.15773687
-0.14604484
-0.10006972
-0.069231845
-0.055874191
-0.014666662
-0.42533332
-0.39612913
-0.37857378
-0.35558772
-0.32113194
-0.27316618
-0.26791137
-0.21028656
-0.19146484
-0.1746628
-0.13408399
-0.10418671
nan
-0.055004891
-0.012258369
0.014666662
-0.396
-0.37488621
-0.33762702
-0.29841495
-0.2841495
-0.25443029
-0.23944081
-0.20164824
-0.15882449
-0.15329105
-0.10417329
-0.086041339
-0.056119256
-0.007505144
0.021332938
0.044
-0.36666667
-0.33590177
-0.32850119
-0.29052502
-0.27199516
-0.25446033
-0.19268118
-0.18331279
-0.13338749
-0.098683208
-0.074024223
-0.028800264
-0.021457752
0.016853789
0.046124395
0.073333338
-0.33733332
-0.30519214
-0.2884509
-0.26973376
-0.2355548
-0.19832507
-0.17945732
-0.14613523
-0.11879095
-0.091257483
-0.045159236
-0.023634572
0.015284816
0.030615872
0.079635687
0.10266666
-0.30800003
-0.27946523
-0.26111889
-0.23155588
-0.18168648
-0.16970888
-0.15160711
-0.1253562
-0.080361545
-0.037977207
-0.015615144
nan
0.045401007
0.066123985
0.1122811
0.13199998
-0.27866668
-0.24925795
-0.23163438
-0.20103855
-0.15522613
-0.13024411
-0.076715827
-0.092562459
-0.053222883
-0.015621508
0.0082921339
0.04619484
0.060052231
0.11780404
0.11804955
0.16133334
-0.24933334
-0.2057291
-0.18670587
-0.16651975
-0.1362063
-0.08241608
-0.08720877
-0.054158907
-0.012140488
0.0067134392
0.037458092
0.052883282
0.12502414
0.12277644
0.15620054
0.19066666
-0.22000001
-0.19710195
-0.16078141
-0.14525065
-0.10575034
-0.087611526
-0.040666237
-0.019143166
0.015243271
0.048248567
0.081884727
0.1094141
0.13318919
0.15820703
0.19120191
0.21999998
-0.19066666
-0.16133332
-0.132
-0.10266666
-0.07333333
-0.044
-0.014666662
0.014666662
0.044
0.073333338
0.10266666
0.13199998
0.16133334
0.19066666
0.21999998
0.24933334
-0.60133332
-0.57199997
-0.54266667
-0.51333332
-0.48400003
-0.45466667
-0.42533332
-0.39600003
-0.36666667
-0.33733332
-0.30800003
-0.27866668
-0.24933334
-0.22000001
-0.19066669
-0.16133334
-0.57199997
-0.54062486
-0.5116452
-0.49298981
-0.45554546
-0.4216367
-0.39396647
-0.36311141
-0.33602092
-0.3162156
-0.2898328
-0.25012398
-0.22013216
-0.19525439
-0.16447756
-0.132
-0.54266667
-0.5039084
-0.48238757
-0.47208056
-0.41937441
-0.41226634
-0.36211154
-0.3342084
-0.29218224
-0.26548451
-0.24341689
-0.20141393
-0.18745314
-0.15504566
-0.13376258
-0.10266668
-0.51333332
-0.49132782
-0.44867861
-0.4310177
-0.39291999
-0.38712269
-0.34930539
-0.30186167
-0.28237331
-0.25659043
-0.2269855
-0.21240205
-0.20288824
-0.12172711
-0.10656239
-0.073333338
-0.48400003
-0.44636774
-0.44460306
-0.41637769
-0.35527739
-0.34171835
-0.30712673
-0.2606338
-0.25055385
-0.23077391
-0.19195224
-0.17572133
-0.11968728
-0.10189587
-0.078025252
-0.044000007
-0.45466667
-0.42634013
-0.39547569
-0.37939382
-0.35131097
-0.32555047
-0.29957131
-0.2620281
-0.24317285
-0.21826422
-0.18657674
-0.1571202
-0.097063154
-0.088732101
-0.039853472
-0.014666677
-0.42533332
-0.4196763
-0.37770543
-0.34796521
-0.32753375
-0.30191299
-0.25052637
-0.22565889
-0.20036076
-0.14528604
-0.11733168
-0.087019183
-0.070755213
-0.064018823
0.0014161242
0.014666662
-0.39600003
-0.36675766
-0.35358888
-0.30701858
-0.30807337
-0.2787627
-0.24982566
-0.21233983
-0.18146122
-0.15542209
-0.11552778
-0.095136136
-0.041591056
-0.025089623
0.024215993
0.043999985
-0.36666667
-0.33933055
-0.31056425
-0.28191799
-0.24909343
-0.24471675
-0.24304022
-0.16821705
-0.14915584
-0.1161423
-0.082451627
-0.067594305
-0.014480768
0.0071685063
0.042438727
0.073333323
-0.33733332
nan
-0.29476553
-0.25948256
-0.26483652
-0.23218472
-0.16571191
-0.1823047
-0.10365289
-0.082507916
-0.078249007
-0.013558717
0.033004072
0.025088111
0.075849175
0.10266666
nan
-0.28000775
-0.27983019
-0.23617707
-0.21020199
-0.18492712
-0.17682886
-0.12221535
-0.075005919
-0.065771505
-0.041839425
0.00099531678
0.059167787
0.077514835
0.095975868
0.13199998
-0.27866668
-0.24746704
-0.21549857
-0.19393064
-0.17790386
-0.14167342
-0.1217249
-0.070089929
-0.050861567
-0.026367832
0.020632466
0.033752613
0.08002466
0.092707515
0.13263389
0.16133331
-0.24933334
-0.23199576
-0.19476043
-0.16642167
-0.1703795
-0.11095761
-0.075425558
-0.073797978
-0.028856294
0.017773537
0.05401098
0.057650279
0.097870581
0.14071611
0.16386768
0.19066666
-0.22000001
-0.19491281
-0.17236114
-0.14595303
-0.12590539
-0.071057782
-0.067747779
-0.043291353
0.0011881827
0.038971726
0.081121944
0.090344124
0.14685979
0.15481976
0.19802919
0.21999998
-0.19066669
-0.1728045
-0.12960902
nan
-0.089780279
-0.044910289
-0.019116756
0.0021859654
0.041155014
0.051737111
0.10228068
0.13681251
0.16727529
0.17519455
0.22066335
0.24933331
-0.16133334
-0.132
-0.10266668
-0.073333338
-0.044000007
-0.014666677
0.014666662
0.043999985
0.073333323
0.10266666
0.13199998
0.16133331
0.19066666
0.21999998
0.24933331
0.27866668
-0.57200003
-0.54266667
-0.51333332
-0.484
-0.45466667
-0.42533335
-0.396
-0.36666667
-0.33733332
-0.308
-0.27866668
-0.24933335
-0.22
-0.19066668
-0.16133335
-0.132
-0.54266667
-0.51058167
-0.48929828
-0.44862464
-0.42083234
-0.38614082
-0.38617012
-0.35167897
-0.30467826
-0.30069533
-0.24688609
-0.2238819
-0.18942975
-0.15765096
-0.125034
-0.10266666
-0.51333332
-0.49330902
-0.46933451
-0.41578478
-0.40953937
-0.38104573
-0.33801261
-0.28426677
-0.26624078
-0.23688957
-0.19595806
-0.19647214
-0.17661585
-0.11122326
-0.10680318
-0.073333338
-0.484
-0.4375042
-0.44301823
-0.38934207
-0.37180358
-0.35191873
-0.32485715
-0.26275408
-0.27491
-0.21215428
-0.20058626
-0.15395504
-0.13186716
-0.11319118
-0.076642811
-0.044
-0.45466667
-0.41960391
-0.3996017
-0.36452606
-0.34046057
-0.3278423
-0.2690109
-0.23939018
-0.23165891
-0.1962802
-0.16975962
-0.13335185
-0.099009141
-0.054568369
-0.045273576
-0.014666669
-0.42533335
-0.37836599
-0.37736914
-0.35206613
-0.33878833
-0.30323434
-0.27181333
-0.23574497
-0.18910067
-0.19589305
-0.15273172
-0.11065876
-0.078474514
-0.036242329
-0.013373363
0.014666662
-0.396
-0.37178645
-0.35353792
-0.31473714
-0.30069697
-0.29003659
-0.25606608
-0.19807789
-0.1735359
-0.13640851
-0.064895086
-0.098933592
-0.033044375
-0.027635578
0.028108446
0.044
-0.36666667
-0.34254777
-0.31299672
-0.30079475
-0.25877878
-0.25117713
-0.19761649
-0.18176898
-0.16326249
-0.083270103
-0.090052515
-0.042997185
-0.035682041
0.0095676575
0.055602636
0.073333323
-0.33733332
-0.31657672
-0.28636724
-0.24360737
-0.24180083
-0.22739929
-0.2094923
-0.16443381
-0.12618092
-0.087887287
-0.018768486
-0.038307063
-0.046682045
0.053631216
0.059715983
0.10266666
-0.308
-0.29647925
-0.25913665
-0.26178992
-0.22625439
-0.19786268
-0.17343129
-0.13124998
-0.10420688
-0.048832871
-0.0065472433
0.032328308
0.04148357
0.084843777
0.098994799
0.132
-0.27866668
-0.25937101
-0.25192884
-0.20115843
-0.21315417
-0.15682347
-0.094974175
nan
-0.065365434
-0.05664178
0.0035061012
0.067655243
0.11324115
0.080820352
0.15957898
0.16133332
-0.24933335
-0.24015823
-0.20229402
-0.17338166
-0.16830847
-0.12085714
-0.099846475
-0.076020487
-0.04023039
0.017686589
0.038634963
0.079469554
0.094385073
0.13259751
0.17038634
0.19066665
-0.22
-0.20451577
-0.18265685
-0.17200643
-0.1210785
-0.13825788
-0.057121735
-0.026823048
-0.00098845642
0.0214283
0.079508699
0.10656369
0.14636776
0.16455002
0.18608285
0.22
-0.19066668
-0.15983909
-0.13653497
-0.10776695
-0.071613342
-0.068853803
-0.048080742
-0.0081081353
0.037349395
0.068148322
0.082634188
0.11964451
0.16545784
0.19117454
0.21368046
0.24933332
-0.16133335
-0.14328019
-0.10133798
-0.083118133
-0.045290083
-0.025903046
0.016424656
0.033395652
0.076643661
0.084497645
0.12457312
0.16185102
0.19164172
0.19498289
0.26618484
0.27866665
-0.132
-0.10266666
-0.073333338
-0.044
-0.014666669
0.014666662
0.044
0.073333323
0.10266666
0.132
0.16133332
0.19066665
0.22
0.24933332
0.27866665
0.308
-0.54266667
-0.51333332
-0.48400003
-0.45466667
-0.42533335
-0.39600003
-0.36666667
-0.33733335
-0.308
-0.27866668
-0.24933335
-0.22000003
-0.19066668
-0.16133335
-0.13200003
-0.10266667
-0.51333332
-0.48820877
-0.45135459
-0.4209663
-0.39295128
-0.37757862
-0.34207064
-0.33150473
-0.27748814
-0.24919586
-0.24441791
-0.19877779
-0.17881429
-0.14157188
-0.094501749
-0.07333333
-0.48400003
-0.46326691
-0.4221015
-0.37631205
-0.38507074
-0.34688205
-0.32878605
-0.264916
-0.26419955
-0.24109639
-0.17952837
-0.1450278
-0.11652185
-0.096640408
-0.06612429
-0.044000007
-0.45466667
-0.44021922
-0.41785273
-0.36884832
-0.34761065
-0.33383179
-0.30720419
-0.28147918
-0.24373144
-0.21719684
-0.19256742
-0.13633634
-0.099234149
-0.060908921
-0.033523012
-0.014666669
-0.42533335
-0.41367352
-0.35064855
-0.35941556
-0.31928036
-0.27545637
-0.25767869
-0.19813246
-0.21258441
-0.15620418
-0.12866196
-0.11113957
-0.0954725
-0.058709819
-0.027198303
0.014666662
-0.39600003
-0.36694857
-0.36135042
-0.32698914
-0.26715493
-0.24393854
-0.22721846
-0.22792862
-0.1761557
-0.11622275
-0.13758318
-0.085876971
-0.081001051
-0.019825529
0.026860507
0.043999992
-0.36666667
-0.34481949
-0.2852017
-0.31391472
-0.27257288
-0.22808701
-0.22814699
-0.20391503
-0.18523483
-0.11359648
-0.095503062
-0.062583491
-0.061092343
-0.0055056475
0.040893357
0.07333333
-0.33733335
-0.31775269
-0.3204042
-0.27906749
-0.27228066
-0.25000519
-0.203095
-0.15456283
-0.16805395
-0.11930017
-0.054876044
-0.023124531
-0.0029598903
0.083557867
0.051682744
0.10266665
-0.308
-0.28938687
-0.26768288
-0.27040991
-0.22222073
-0.22466612
-0.1907464
-0.11356618
-0.13296074
-0.089124888
-0.02373532
0.025401665
0.044002101
0.077091642
0.10831352
0.132
-0.27866668
-0.26853871
-0.26292673
-0.25171557
-0.19299781
-0.16775469
-0.14637336
-0.11092374
-0.10173086
-0.090855882
0.00030668173
0.0049545565
0.062608503
0.092915148
0.14867009
0.16133332
-0.24933335
-0.24625726
-0.2280326
-0.20826811
-0.20746978
-0.15105553
-0.16038541
-0.11595294
-0.077735476
-0.008754923
0.046471883
0.024538301
0.083544783
0.1451624
0.16103016
0.19066665
-0.22000003
-0.1980117
-0.19276625
-0.1640197
-0.16796102
-0.093508437
-0.096835449
-0.033387262
0.019043259
0.028855631
0.077076972
0.10971799
0.12560399
0.14414306
0.20976026
0.21999997
-0.19066668
-0.17323217
-0.15619035
-0.15217988
-0.12468535
-0.073281452
-0.070405327
-0.027818475
0.010376024
0.085565664
0.09442693
0.14058283
0.16300076
0.16089825
0.21454166
0.24933332
-0.16133335
-0.14698704
-0.12263487
-0.10336784
-0.064668342
-0.039040044
-0.032906387
0.018695807
0.05423848
0.074257925
0.1414296
0.13713187
0.23052751
0.22515564
0.25495031
0.27866665
-0.13200003
-0.098969363
-0.098234765
-0.070964746
-0.022763368
0.00064783578
0.044171229
0.081000283
0.095708959
0.12883151
0.14924797
0.18485717
0.22573695
0.2542786
nan
0.30799997
-0.10266667
-0.07333333
-0.044000007
-0.014666669
0.014666662
0.043999992
0.07333333
0.10266665
0.132
0.16133332
0.19066665
0.21999997
0.24933332
0.27866665
0.30799997
0.33733332
-0.51333332
-0.48399997
-0.45466667
-0.42533332
-0.39600003
-0.36666667
-0.33733332
-0.30800003
-0.27866668
-0.24933334
-0.22000001
-0.19066669
-0.16133334
-0.13200001
-0.10266669
-0.073333338
-0.48399997
-0.45064941
-0.42686346
-0.39053622
-0.3672075
-0.34599894
-0.30723181
-0.28545019
-0.25627589
-0.22541036
-0.20136909
-0.16483337
-0.13554646
-0.096255191
-0.091203883
-0.044
-0.45466667
-0.43335849
-0.39739254
-0.37359363
-0.32340297
-0.33635604
-0.28660217
-0.22564334
-0.23848487
-0.20474523
-0.1620578
-0.1053722
-0.09534318
-0.079598345
-0.041378919
-0.014666677
-0.42533332
-0.41152576
-0.3670955
-0.33211583
-0.30236107
-0.28324842
-0.28216794
-0.24350531
-0.22004233
-0.15787822
-0.13632688
-0.11546012
-0.060598832
-0.046118323
-0.017585156
nan
-0.39600003
-0.3527509
-0.35180363
-0.29922104
-0.2944859
-0.25605586
-0.23127945
-0.20080434
-0.18462689
-0.16773774
-0.10225372
-0.074922279
-0.046399411
-0.022125453
0.029208032
0.043999992
-0.36666667
-0.35454056
-0.31479746
-0.2657046
-0.27282757
-0.27225414
-0.22006305
-0.19715139
-0.15995876
-0.11621673
-0.085496902
-0.059695456
-0.025123542
0.018033242
0.042315297
0.073333323
-0.33733332
-0.33012196
-0.31371814
-0.28587011
-0.25254717
-0.26378483
-0.21141079
-0.15288885
-0.12806539
-0.082441129
-0.089718066
0.013853566
0.0088623203
0.054303046
0.073724814
0.10266666
-0.30800003
-0.27194887
-0.26546136
-0.27186632
-0.23473056
-0.23433375
-0.17520078
-0.1529485
-0.1535237
-0.085389964
nan
0.016074726
0.012285255
0.066886127
0.090934388
0.13199998
-0.27866668
-0.26410207
-0.23873526
-0.23910227
-0.19851518
nan
-0.17509241
-0.15044299
-0.10185944
-0.073774576
-0.015258672
0.033048108
0.049064077
0.11209862
0.149572
0.16133332
-0.24933334
-0.23468867
-0.24285513
-0.20386581
-0.19603178
-0.19791241
-0.17869239
-0.16516365
-0.1079042
-0.051793963
0.001295586
nan
0.11518686
0.14475504
0.13450335
0.19066666
-0.22000001
-0.21988481
-0.20315592
-0.17949416
-0.16909286
nan
-0.19221181
-0.10526354
-0.043866217
-0.0013100288
nan
0.076191276
0.13896078
0.18641321
0.20433162
0.21999998
-0.19066669
-0.16788231
-0.15612155
-0.16609086
-0.13808934
-0.14363037
-0.097640932
-0.073669463
-0.0019888012
0.061048895
0.11943301
0.10135078
0.17020313
0.19940487
0.20560151
0.24933331
-0.16133334
-0.14548148
-0.13798833
-0.12566024
-0.13453516
-0.10706919
-0.052966118
0.028837033
0.033892553
0.12160622
0.11862826
0.16470696
0.20765062
0.22820947
0.25185984
0.27866668
-0.13200001
-0.10536978
-0.068119906
-0.060568895
-0.069689609
-0.059990615
0.029605294
0.048818458
0.10141765
0.12944701
0.14259875
0.19698495
0.25255704
0.26263481
0.27902538
0.30799997
-0.10266669
-0.072431184
-0.052225929
-0.042147439
0.0070752245
0.044151817
0.072761573
0.1273798
0.10157938
0.14350277
0.1852942
0.2361239
0.25205067
0.27391124
0.31863278
0.33733332
-0.073333338
-0.044
-0.014666677
0.014666662
0.043999992
0.073333323
0.10266666
0.13199998
0.16133332
0.19066666
0.21999998
0.24933331
0.27866668
0.30799997
0.33733332
0.36666667
-0.484
-0.45466664
-0.42533335
-0.396
-0.36666667
-0.33733335
-0.308
-0.27866668
-0.24933334
-0.22
-0.19066668
-0.16133335
-0.132
-0.10266668
-0.073333353
-0.044
-0.45466664
-0.43094292
-0.37978023
-0.39388013
-0.34825155
-0.32255536
-0.2808665
-0.25988913
-0.23799661
-0.19638577
-0.14827093
-0.12913476
-0.095492192
-0.07304883
-0.04604147
-0.014666662
-0.42533335
-0.39065623
-0.35506102
-0.36145765
-0.28793752
-0.28877407
-0.26457676
-0.23619068
-0.21391371
-0.14031516
-0.1362868
-0.093457609
-0.084642135
-0.030513767
-0.017355664
0.014666662
-0.396
-0.3729319
-0.36123493
-0.3294315
-0.30718324
-0.24273753
-0.24069926
-0.23475404
-0.1603334
-0.1264745
-0.12365153
-0.073248625
-0.037816692
-0.0048373882
0.011112317
0.044
-0.36666667
-0.34358364
-0.32128841
-0.29241815
-0.25646544
-0.2433276
-0.19737993
-0.18491375
-0.14533617
-0.12715907
-0.089975946
-0.08605849
-0.055937987
-0.00059449958
0.038382884
0.07333333
-0.33733335
-0.31239089
-0.31176332
-0.23147002
-0.29324487
-0.20659918
-0.20473135
-0.1739608
-0.12175918
-0.079664074
-0.053298984
-0.033567604
-0.033937719
0.062416319
0.08038152
0.10266666
-0.308
-0.28289771
-0.26960582
-0.26357818
-0.21968129
-0.19763818
-0.14963181
-0.14961149
-0.096345201
-0.034317188
-0.03635367
0.013482172
0.049969696
0.089611083
0.10284534
0.132
-0.27866668
-0.26385185
-0.23460707
-0.22579663
-0.2207197
-0.22583252
-0.14405459
-0.12547146
-0.10998272
-0.032663491
0.034952633
0.023974366
0.029273802
0.12948778
0.14272037
0.16133332
-0.24933334
-0.24489193
-0.22247532
-0.19500697
-0.20592126
-0.1956161
-0.17906557
-0.16505231
-0.090039164
-0.014947026
0.033400103
0.047718357
0.11174341
0.11759247
0.15675694
0.19066666
-0.22
-0.20562267
-0.20540507
-0.19261473
-0.21768887
-0.22247376
-0.21092311
-0.21760593
-0.088916227
-0.0419451
0.061780147
0.11860251
0.15552062
0.13640752
nan
0.22
-0.19066668
-0.1885633
-0.18742037
-0.18474247
nan
-0.19895433
-0.19832222
-0.16130331
-0.037905358
0.049846459
0.14876018
0.16043834
0.20701934
0.2024543
0.21922927
0.24933332
-0.16133335
-0.16794427
-0.13924254
-0.11258331
-0.14150099
-0.14458093
-0.12813906
-0.018911263
nan
0.12712047
0.16734014
0.18654436
0.19950515
0.22476217
0.25622666
0.27866665
-0.132
-0.11630288
-0.1051606
-0.14007021
-0.11956472
-0.11122067
nan
nan
0.10261127
0.16153397
0.15112635
0.22889334
0.21395847
0.25399768
0.27559134
0.308
-0.10266668
-0.09848813
-0.071739234
-0.034175735
-0.040838756
-0.23992318
nan
0.0099986689
0.10410636
0.18634316
0.19253743
0.23781626
0.26021191
0.26046732
0.31611392
0.33733332
-0.073333353
-0.038355991
-0.018037347
-0.012808052
0.016644355
0.10738278
0.11477316
0.110178
0.17299111
0.1835548
0.22755952
0.26328105
0.27438602
0.30881128
0.34541586
0.36666664
-0.044
-0.014666662
0.014666662
0.044
0.07333333
0.10266666
0.132
0.16133332
0.19066666
0.22
0.24933332
0.27866665
0.308
0.33733332
0.36666664
0.396
-0.45466667
-0.42533332
-0.39600003
-0.36666667
-0.33733335
-0.30800003
-0.27866668
-0.24933335
-0.22000001
-0.19066668
-0.16133335
-0.13200003
-0.10266668
-0.073333353
-0.04400003
-0.014666677
-0.42533332
-0.40558073
-0.36180085
-0.3401995
-0.29447836
-0.29186437
-0.24736239
-0.22351375
-0.19503237
-0.17215584
-0.14792071
-0.079408117
-0.077220321
-0.051947441
-0.0095296483
0.014666662
-0.39600003
-0.35518503
-0.33400965
-0.2954227
-0.30695227
-0.24266288
-0.23588069
-0.20967562
-0.1787433
-0.095337816
-0.11783473
-0.062244877
-0.051655553
-0.040143792
0.024814669
0.043999985
-0.36666667
-0.34390947
-0.31825644
-0.30865595
-0.27777946
-0.24648722
-0.21353833
-0.16625254
-0.17368174
-0.1172807
-0.061979536
-0.056619853
-0.025937328
0.01898426
0.052599065
0.073333323
-0.33733335
-0.30514801
-0.27767324
-0.24075247
-0.2404172
-0.20851374
-0.19407617
-0.14033943
-0.15145332
-0.087865055
-0.015108421
-0.029694391
-0.015529421
0.055986512
0.078909323
0.10266665
-0.30800003
-0.29352841
-0.22723731
nan
-0.19768152
-0.14495224
-0.14378403
-0.11838915
-0.1002766
-0.042898055
-0.040711917
0.016554195
0.016563216
0.099231757
0.10065588
0.13199998
-0.27866668
-0.23451781
-0.25210136
-0.2243024
-0.20219886
-0.1538261
-0.1697073
-0.11973207
-0.061538726
-0.074031033
0.02278037
0.039199874
0.065538839
0.064124487
0.10920495
0.16133332
-0.24933335
-0.22130017
-0.20466921
-0.19808327
-0.16942374
-0.17771682
-0.1349237
-0.065404169
-0.0427237
0.0032233463
0.0086897304
0.044686064
0.097005568
0.11692874
0.15197201
0.19066665
-0.22000001
-0.2127181
-0.20751137
-0.19184275
-0.16084938
-0.22751051
-0.18485633
-0.20825224
-0.093520679
-0.061085261
0.043013375
0.078997761
0.116735
0.17252934
0.20525885
0.21999998
-0.19066668
-0.18949613
-0.18311122
-0.16189189
-0.17764629
-0.20130794
-0.19384335
nan
nan
-0.006610997
0.12148564
0.12320706
0.16385038
0.21049954
0.21003313
0.24933332
-0.16133335
-0.15885161
-0.12016502
-0.17744043
-0.23389879
-0.31752694
-0.28498605
nan
0.029336894
0.1627951
0.21106339
0.22109935
0.20052247
0.24636661
0.28557286
0.27866665
-0.13200003
-0.12139707
-0.11300742
-0.11784964
-0.17664655
-0.20593415
-0.12338609
nan
nan
0.19246942
0.26251149
0.24179316
0.21354958
0.27787796
0.29116783
0.30799997
-0.10266668
-0.077529706
-0.066783302
-0.043744344
-0.13041939
-0.19788069
nan
0.086501941
0.19026443
0.23140827
0.24396104
0.24278325
0.28443265
0.30685592
0.31707281
0.33733332
-0.073333353
-0.042574394
-0.040201444
-0.045060355
-0.011023968
0.14443621
-0.085662059
-0.18753095
nan
0.25440362
0.21589851
0.30755794
0.27916503
0.29514009
0.33709991
0.36666664
-0.04400003
-0.019193942
0.0096207233
0.0013761704
0.054520532
0.15521444
0.17434654
0.27176154
0.21776563
0.23420368
0.26187891
0.30419993
0.33629408
0.35107547
0.36961171
0.39599997
-0.014666677
0.014666662
0.043999985
0.073333323
0.10266665
0.13199998
0.16133332
0.19066665
0.21999998
0.24933332
0.27866665
0.30799997
0.33733332
0.36666664
0.39599997
0.42533332
-0.42533332
-0.39599997
-0.36666667
-0.33733332
-0.30800003
-0.27866668
-0.24933334
-0.22000001
-0.19066668
-0.16133334
-0.13200001
-0.10266669
-0.073333338
-0.044000015
-0.014666691
0.014666662
-0.39599997
-0.35939142
-0.32915771
-0.30958965
-0.27621946
-0.2513431
-0.23855248
-0.18390599
-0.13271073
-0.14156634
-0.12006178
-0.082672976
-0.058323875
-0.015088233
0.0065480946
0.044
-0.36666667
-0.35658237
-0.32145825
-0.27354535
-0.26556727
-0.24119054
-0.19992302
-0.15336354
-0.14829805
-0.10764652
-0.11022506
-0.054889597
0.0062155114
0.0090513136
0.036019363
0.073333323
-0.33733332
-0.29984072
-0.28266528
-0.27303553
-0.23022178
-0.21468042
-0.16129865
-0.121256
-0.13263866
-0.084525906
-0.036049478
-0.01225709
0.016504491
0.045415919
nan
0.10266666
-0.30800003
-0.27438954
-0.26751
-0.2708036
-0.21980743
nan
-0.10563201
-0.11874271
-0.083925322
-0.070746094
0.015737519
0.0060537136
0.03242448
0.074414425
0.090149149
0.132
-0.27866668
-0.26906472
-0.21213004
-0.2134819
-0.21366264
-0.14761215
-0.14545582
-0.099240534
-0.07869745
-0.024322407
-0.010380668
0.0037992373
0.06555938
0.074238099
0.12460162
0.16133332
-0.24933334
-0.20413393
-0.20221314
-0.21047056
-0.15650825
-0.13297954
-0.068776287
-0.10365335
-0.047038894
-0.03285623
0.037937678
0.06258636
0.1535925
0.14973636
0.16140988
0.19066666
-0.22000001
-0.19648135
-0.20413443
-0.10625375
-0.15339254
-0.15410662
-0.12238351
-0.15120266
-0.021702874
nan
0.0085478611
0.10126618
0.11667323
0.18559141
0.20278084
0.21999998
-0.19066668
-0.17375158
-0.16079074
-0.1676576
-0.14786658
-0.13218603
-0.13964052
nan
-0.077686206
0.025270039
0.076545686
0.16736041
0.12961146
0.19706322
0.2398604
0.24933332
-0.16133334
-0.14503834
-0.1203516
-0.14603615
-0.15367049
-0.067063458
nan
-0.12842147
nan
nan
0.17986111
0.23292626
0.17766331
0.25643888
0.24854811
0.27866668
-0.13200001
-0.11318547
-0.10436654
-0.12790425
-0.16592212
nan
nan
nan
nan
nan
0.32547423
nan
0.22108801
0.26760328
0.29089925
0.30799997
-0.10266669
-0.074388973
-0.092051864
-0.079381213
-0.18326451
nan
nan
nan
0.24467999
0.46754164
nan
0.26756129
0.24771419
0.30729717
0.3136906
0.33733332
-0.073333338
-0.057430457
-0.061621964
-0.0559888
-0.089392751
nan
nan
0.2745907
0.3941538
0.35211411
0.29454598
0.29853714
0.29811981
0.35278243
0.34097788
0.36666667
-0.044000015
-0.011311687
-0.013521942
0.025963254
nan
0.20687479
nan
0.28206599
0.28547457
0.29340461
0.27390754
0.30448499
0.32059646
0.34953204
0.36728612
0.39599997
-0.014666691
0.020040909
0.034201931
0.064708315
0.12808669
0.17957984
0.24699265
0.26564956
0.2491616
0.28678024
0.29386878
0.32875904
0.35300031
0.37861416
0.39668727
0.42533332
0.014666662
0.044
0.073333323
0.10266666
0.132
0.16133332
0.19066666
0.21999998
0.24933332
0.27866668
0.30799997
0.33733332
0.36666667
0.39599997
0.42533332
0.45466667
-0.396
-0.36666664
-0.33733335
-0.308
-0.27866668
-0.24933335
-0.22
-0.19066668
-0.16133334
-0.132
-0.10266668
-0.073333353
-0.044
-0.014666677
0.014666647
0.044
-0.36666664
-0.33359078
-0.331844
-0.27759862
-0.25522047
-0.22932728
-0.18771684
-0.1524487
-0.13142066
-0.10651179
-0.081759058
-0.048536457
0.0081174821
0.014031534
0.038518291
0.073333338
-0.33733335
-0.32059437
-0.2774798
-0.25403908
-0.22114843
-0.2160347
-0.18852426
-0.14636894
-0.13172278
-0.067706764
-0.039266542
-0.013526089
0.016001498
0.049674872
0.058814902
0.10266666
-0.308
-0.28522554
-0.26567465
-0.22293408
-0.20595708
-0.17804447
-0.13614333
-0.092390515
-0.08348757
-0.062179845
-0.017850179
0.0077188099
0.077772565
0.069458529
0.091028683
0.132
-0.27866668
-0.26491833
-0.21955352
-0.20392443
nan
-0.15011097
-0.13777448
-0.080901764
-0.078428239
0.00086680567
0.031221068
0.0090742121
0.072228283
0.085840091
0.14061542
0.16133332
-0.24933335
-0.23304838
-0.19428918
-0.16180125
-0.14091757
-0.093274616
-0.14811911
-0.052974358
-0.038738612
0.0011115305
0.039330985
0.067138545
0.092348829
0.1306114
0.17166544
0.19066666
-0.22
-0.21288665
-0.17741942
-0.16179253
-0.1178103
-0.10117389
-0.094683543
-0.057640918
0.026236549
0.0057627205
0.051788338
0.11381155
0.1186104
0.16765696
0.18736987
0.22
-0.19066668
-0.17053844
-0.17265359
-0.12017495
-0.088019826
-0.072309315
-0.052280143
-0.024085613
-0.00098827947
0.049864866
0.075957499
0.11234339
0.11747767
0.20369007
0.21288152
0.24933332
-0.16133334
-0.11250199
-0.12161104
-0.12090908
-0.10217585
-0.086456321
-0.087262958
-0.0055719241
0.047118288
0.14186828
0.11824124
0.18312789
0.20834862
0.22282732
0.26809865
0.27866668
-0.132
-0.089088485
-0.10617961
-0.084428012
-0.073480971
-0.042365156
0.34473988
nan
0.4081282
0.21670394
0.20271486
0.19759661
0.20859776
0.27891427
0.29278135
0.308
-0.10266668
nan
-0.061031781
-0.068919241
-0.05555347
0.0097683994
0.2320677
nan
nan
0.42029044
nan
0.30201972
0.27885926
0.30391937
0.32961518
0.33733332
-0.073333353
-0.058536306
-0.032465052
-0.063575335
nan
0.10144043
0.37589341
0.45603615
0.47631451
nan
0.35115397
0.28716657
0.29448456
0.33954266
0.36640856
0.36666664
-0.044
-0.024862967
-0.026164349
0.018124284
0.042310227
nan
0.39437842
nan
0.40915397
0.35535005
0.33634433
0.32940194
0.33452079
0.35873523
0.36376965
0.396
-0.014666677
-0.0022522814
0.031895407
0.051529415
0.11050427
nan
0.31744054
0.33007377
0.31929275
0.31950951
0.3452988
0.33347788
0.38036868
0.36810353
0.40027428
0.42533332
0.014666647
0.038309101
0.078266539
0.08990977
0.14423153
0.21169196
0.27387598
0.30033153
0.28727248
0.31115159
0.34678704
0.35395724
0.36659977
0.39939365
0.43294516
0.45466664
0.044
0.073333338
0.10266666
0.132
0.16133332
0.19066666
0.22
0.24933332
0.27866668
0.308
0.33733332
0.36666664
0.396
0.42533332
0.45466664
0.484
-0.36666667
-0.33733332
-0.30800003
-0.27866668
-0.24933335
-0.22000003
-0.19066668
-0.16133335
-0.13200001
-0.10266668
-0.073333353
-0.04400003
-0.014666677
0.014666647
0.04399997
0.073333323
-0.33733332
-0.31659168
-0.27350792
-0.24081749
-0.2314152
-0.17874159
-0.17437622
-0.13748227
-0.12023236
-0.062118635
-0.052652396
-0.017046709
0.023539184
0.031261779
0.075642504
0.10266666
-0.30800003
-0.28008583
-0.24877363