# vtk DataFile Version 3.0
Zombie Bunny baseline structured grid
ASCII
DATASET STRUCTURED_POINTS
DIMENSIONS 16 16 16
ORIGIN -1.1 -1.1 -1.1
SPACING 0.14666666666666667 0.14666666666666667 0.14666666666666667
POINT_DATA 4096
SCALARS solution float 1
LOOKUP_TABLE default
-3.3000001907348633
-3.1533334255218506
-3.006666660308838
-2.8600001335144043
-2.7133333683013916
-2.566666841506958
-2.4200000762939453
-2.2733335494995117
-2.12666654586792
-1.9800000190734863
-1.8333334922790527
-1.6866668462753296
-1.540000081062317
-1.3933333158493042
-1.2466667890548706
-1.100000023841858
-3.1533331871032715
-3.006666660308838
-2.859999895095825
-2.7133333683013916
-2.566666603088379
-2.4200000762939453
-2.2733333110809326
-2.12666654586792
-1.9799997806549072
-1.8333332538604736
-1.68666672706604
-1.5399999618530273
-1.3933334350585938
-1.246666669845581
-1.100000023841858
-0.9533332586288452
-3.006666660308838
-2.8600001335144043
-2.7133333683013916
-2.566666603088379
-2.4200000762939453
-2.2733333110809326
-2.126666784286499
-1.9800000190734863
-1.8333334922790527
-1.6866668462753296
-1.5399999618530273
-1.3933333158493042
-1.246666669845581
-1.100000262260437
-0.9533334374427795
-0.8066667318344116
-2.8600001335144043
-2.7133333683013916
-2.566666603088379
-2.4200000762939453
-2.2733330726623535
-2.12666654586792
-1.9800000190734863
-1.8333332538604736
-1.68666672706604
-1.5399999618530273
-1.3933334350585938
-1.246666669845581
-1.1000001430511475
-0.95333331823349
-0.8066667914390564
-0.6599999666213989
-2.7133333683013916
-2.566666603088379
-2.4200000762939453
-2.2733330726623535
-2.12666654586792
-1.9800000190734863
-1.8333332538604736
-1.6866666078567505
-1.5399998426437378
-1.3933333158493042
-1.246666669845581
-1.1000001430511475
-0.9533335566520691
-0.8066667318344116
-0.6600000858306885
-0.5133333206176758
-2.566666603088379
-2.4200000762939453
-2.2733333110809326
-2.12666654586792
-1.9800000190734863
-1.8333334922790527
-1.6866663694381714
-1.540000081062317
-1.3933334350585938
-1.246666669845581
-1.1000001430511475
-0.9533334970474243
-0.8066669702529907
-0.6600001454353333
-0.5133334994316101
-0.36666667461395264
-2.4200000762939453
-2.2733333110809326
-2.126666784286499
-1.9800000190734863
-1.8333334922790527
-1.68666672706604
-1.540000081062317
-1.3933334350585938
-1.2466670274734497
-1.0999999046325684
-0.9533334374427795
-0.8066667914390564
-0.6600000262260437
-0.5133334398269653
-0.3666667938232422
-0.2200000286102295
-2.2733335494995117
-2.12666654586792
-1.9800000190734863
-1.8333333730697632
-1.68666672706604
-1.540000081062317
-1.3933334350585938
-1.2466667890548706
-1.100000023841858
-0.9533333778381348
-0.8066667318344116
-0.6600001454353333
-0.5133334994316101
-0.3666667342185974
-0.22000014781951904
-0.07333338260650635
-2.12666654586792
-1.9800000190734863
-1.8333333730697632
-1.68666672706604
-1.540000081062317
-1.3933334350585938
-1.2466669082641602
-1.100000023841858
-0.9533332586288452
-0.8066665530204773
-0.6599999666213989
-0.5133335590362549
-0.36666667461395264
-0.21999996900558472
-0.07333362102508545
0.07333338260650635
-1.9800000190734863
-1.8333332538604736
-1.6866668462753296
-1.5399999618530273
-1.3933334350585938
-1.246666669845581
-1.0999999046325684
-0.9533333778381348
-0.8066667914390564
-0.6599999666213989
-0.5133335590362549
-0.36666667461395264
-0.22000014781951904
-0.07333332300186157
0.0733332633972168
0.2200000286102295
-1.8333334922790527
-1.6866668462753296
-1.5399999618530273
-1.3933334350585938
-1.246666669845581
-1.1000001430511475
-0.9533334374427795
-0.8066667318344116
-0.6599999666213989
-0.5133335590362549
-0.36666691303253174
-0.2200002670288086
-0.07333332300186157
0.07333290576934814
0.21999996900558472
0.3666667342185974
-1.6866668462753296
-1.5399999618530273
-1.3933333158493042
-1.2466667890548706
-1.1000001430511475
-0.9533334970474243
-0.8066667914390564
-0.6600001454353333
-0.5133335590362549
-0.36666667461395264
-0.2200002670288086
-0.07333362102508545
0.07333332300186157
0.2199997901916504
0.36666643619537354
0.5133333206176758
-1.540000081062317
-1.3933331966400146
-1.2466667890548706
-1.0999999046325684
-0.9533334970474243
-0.8066669702529907
-0.6600000262260437
-0.5133334994316101
-0.36666667461395264
-0.22000014781951904
-0.07333362102508545
0.07333308458328247
0.21999990940093994
0.36666685342788696
0.5133334398269653
0.6600000262260437
-1.3933333158493042
-1.2466665506362915
-1.100000023841858
-0.9533333778381348
-0.8066669702529907
-0.660000205039978
-0.5133334398269653
-0.3666667342185974
-0.21999996900558472
-0.07333338260650635
0.07333314418792725
0.2199997901916504
0.36666661500930786
0.5133334398269653
0.6600001454353333
0.8066666722297668
-1.2466667890548706
-1.0999999046325684
-0.9533331394195557
-0.8066666126251221
-0.6600000858306885
-0.5133335590362549
-0.3666667938232422
-0.22000014781951904
-0.07333362102508545
0.0733332633972168
0.21999996900558472
0.36666643619537354
0.5133334398269653
0.6599998474121094
0.8066664934158325
0.95333331823349
-1.100000023841858
-0.95333331823349
-0.8066666722297668
-0.6600000262260437
-0.5133333206176758
-0.3666667342185974
-0.2200000286102295
-0.07333338260650635
0.07333338260650635
0.2200000286102295
0.3666667342185974
0.5133333206176758
0.6600000262260437
0.8066666722297668
0.95333331823349
1.100000023841858
-3.1533331871032715
-3.006666660308838
-2.859999895095825
-2.7133333683013916
-2.566666603088379
-2.4200000762939453
-2.2733333110809326
-2.12666654586792
-1.9799998998641968
-1.8333332538604736
-1.68666672706604
-1.5399999618530273
-1.3933331966400146
-1.246666431427002
-1.0999999046325684
-0.9533332586288452
-3.006666660308838
-2.8700718879699707
-2.663156270980835
-2.547785997390747
-2.406949758529663
-2.260305404663086
-2.1174912452697754
-1.9784176349639893
-1.8106993436813354
-1.7122817039489746
-1.5419725179672241
-1.3871515989303589
-1.2567273378372192
-1.094185709953308
-0.9814963340759277
-0.8066664934158325
-2.8600001335144043
-2.700814962387085
-2.556220293045044
-2.4078426361083984
-2.2780587673187256
-2.1324074268341064
-2.0014376640319824
-1.8931224346160889
-1.6968437433242798
-1.454055666923523
-1.3708549737930298
-1.3294878005981445
-1.0990861654281616
-0.9646871089935303
-0.8066713809967041
-0.660000205039978
-2.7133333683013916
-2.5578978061676025
-2.4462037086486816
-2.2505996227264404
-2.060359001159668
-2.0014147758483887
-1.8294434547424316
-1.6980082988739014
-1.5398366451263428
-1.3504889011383057
-1.2812600135803223
-1.0826455354690552
-0.9428786635398865
-0.7891665697097778
-0.6725237965583801
-0.5133334398269653
-2.566666603088379
-2.427225112915039
-2.3329086303710938
-2.172696590423584
-1.988113284111023
-1.837390661239624
-1.6589266061782837
-1.4973393678665161
-1.3745923042297363
-1.2461462020874023
-1.0825426578521729
-0.9803794622421265
-0.8323288559913635
-0.653162956237793
-0.4813351035118103
-0.36666643619537354
-2.4200000762939453
-2.1992180347442627
-2.098923683166504
-1.9690210819244385
-1.8757530450820923
-1.6286884546279907
-1.538635492324829
-1.4638806581497192
-1.202103614807129
-1.0274295806884766
-0.9139026999473572
-0.8400591015815735
-0.6672893762588501
-0.49326130747795105
-0.37852638959884644
-0.21999990940093994
-2.2733335494995117
-2.1796250343322754
-1.9857343435287476
-1.8676124811172485
-1.6666368246078491
-1.5163160562515259
-1.382249116897583
-1.1813784837722778
-1.0846608877182007
-1.0264257192611694
-0.8501441478729248
-0.5807236433029175
-0.5284853577613831
-0.3499981760978699
-0.2200801968574524
-0.0733332633972168
-2.12666654586792
-1.979640007019043
-1.7911803722381592
-1.705788254737854
-1.4801253080368042
-1.3974015712738037
-1.2252490520477295
-1.1250237226486206
-0.9487804174423218
-0.8362361788749695
-0.6298730373382568
-0.5216691493988037
-0.34117841720581055
-0.233757883310318
-0.06384268403053284
0.07333362102508545
-1.9799998998641968
-1.855763554573059
-1.6759799718856812
-1.5171246528625488
-1.407370686531067
-1.2281931638717651
-1.126292109489441
-0.9773145318031311
-0.8274408578872681
-0.6119076013565063
-0.4987218379974365
-0.3454533815383911
-0.2123623937368393
-0.05037660896778107
0.09699931740760803
0.22000014781951904
-1.8333332538604736
-1.6747102737426758
-1.5510590076446533
-1.440211534500122
-1.2457808256149292
-1.1091252565383911
-0.9379703402519226
-0.8009458780288696
-0.6796905994415283
-0.47377443313598633
-0.35301893949508667
-0.2307586669921875
-0.11864934116601944
0.068156398832798
0.1988580971956253
0.3666667938232422
-1.6866668462753296
-1.553022861480713
-1.4211326837539673
-1.2854969501495361
-1.0261402130126953
-0.9741571545600891
-0.8238344788551331
-0.6262850761413574
-0.548288106918335
-0.34952259063720703
-0.23327979445457458
-0.1074560135602951
0.04507151618599892
0.17635968327522278
0.3689711391925812
0.5133335590362549
-1.540000081062317
-1.4044897556304932
-1.2681035995483398
-1.091901183128357
-0.9985601305961609
-0.7979033589363098
-0.6708409786224365
-0.5183285474777222
-0.37346789240837097
-0.21356527507305145
-0.0654188022017479
0.14602136611938477
0.21803976595401764
0.37712594866752625
0.5176888108253479
0.6600000858306885
-1.3933334350585938
-1.2671958208084106
-1.0982890129089355
-0.9640898108482361
-0.7863836884498596
-0.6777495741844177
-0.516532838344574
-0.36177435517311096
-0.19282253086566925
-0.07764172554016113
0.0033611636608839035
0.21626965701580048
0.38177356123924255
0.5278022289276123
0.6390263438224792
0.8066668510437012
-1.2466667890548706
-1.1140583753585815
-0.9413946866989136
-0.7980630993843079
-0.65338534116745
-0.5359731316566467
-0.35647058486938477
-0.20878565311431885
-0.09361687302589417
0.08567988127470016
0.2217363864183426
0.35116174817085266
0.49741825461387634
0.699457585811615
0.8252891898155212
0.9533333778381348
-1.1000001430511475
-0.9170281291007996
-0.8069348931312561
-0.6527009010314941
-0.48532530665397644
-0.3529154658317566
-0.21416282653808594
-0.0890006572008133
0.054441533982753754
0.18979677557945251
0.34813275933265686
0.5613778829574585
0.6507614850997925
0.8046116828918457
0.9563405513763428
1.1000001430511475
-0.95333331823349
-0.8066664934158325
-0.6599998474121094
-0.5133334398269653
-0.36666643619537354
-0.21999996900558472
-0.0733332633972168
0.07333362102508545
0.22000014781951904
0.3666667938232422
0.5133335590362549
0.6600000858306885
0.8066666126251221
0.9533331394195557
1.0999999046325684
1.2466667890548706
-3.006666660308838
-2.8600001335144043
-2.7133333683013916
-2.566666603088379
-2.4200000762939453
-2.2733333110809326
-2.126666784286499
-1.9800000190734863
-1.8333333730697632
-1.6866668462753296
-1.5399999618530273
-1.3933333158493042
-1.2466667890548706
-1.1000001430511475
-0.9533331394195557
-0.8066667318344116
-2.8600001335144043
-2.721609592437744
-2.5486819744110107
-2.4057369232177734
-2.308865785598755
-2.1559205055236816
-1.998480200767517
-1.870522379875183
-1.6806004047393799
-1.5379456281661987
-1.3976655006408691
-1.2751001119613647
-1.126011848449707
-0.9507912397384644
-0.7800343632698059
-0.6599998474121094
-2.7133333683013916
-2.5624778270721436
-2.4820618629455566
-2.309051275253296
-2.1730294227600098
-1.9606107473373413
-1.7950029373168945
-1.6820478439331055
-1.5505263805389404
-1.3431007862091064
-1.2496137619018555
-1.1352618932724
-0.9527069926261902
-0.8207839727401733
-0.6438468098640442
-0.5133334398269653
-2.566666603088379
-2.41137433052063
-2.2879326343536377
-2.1889209747314453
-1.940585970878601
-1.8398393392562866
-1.6888563632965088
-1.528071403503418
-1.379341959953308
-1.3118873834609985
-1.1336567401885986
-0.9011269807815552
-0.8305867910385132
-0.6999303102493286
-0.5239681601524353
-0.36666691303253174
-2.4200000762939453
-2.26108717918396
-2.165773391723633
-1.9853136539459229
-1.7958167791366577
-1.6927742958068848
-1.5616933107376099
-1.4652074575424194
-1.2051811218261719
-1.1163835525512695
-1.0319589376449585
-0.8313220143318176
-0.6489407420158386
-0.5856969356536865
-0.4003278315067291
-0.2199997901916504
-2.2733333110809326
-2.1290512084960938
-1.9736799001693726
-1.7584151029586792
-1.6706587076187134
-1.5140060186386108
-1.389428734779358
-1.2721772193908691
-1.0859397649765015
-1.0135003328323364
-0.8272733092308044
-0.6425914764404297
-0.5556896924972534
-0.4271154999732971
-0.18884511291980743
-0.07333290576934814
-2.12666654586792
-2.015162229537964
-1.905452013015747
-1.6777511835098267
-1.54068124294281
-1.3745598793029785
-1.2678035497665405
-1.0835599899291992
-0.994831383228302
-0.8213402032852173
-0.6807355284690857
-0.5612214207649231
-0.3626992404460907
-0.21683542430400848
-0.05060293525457382
0.07333338260650635
-1.9800000190734863
-1.7827520370483398
-1.7128592729568481
-1.5462323427200317
-1.4488040208816528
-1.2338463068008423
-1.143385410308838
-0.9300931692123413
-0.7848719954490662
-0.6484988331794739
-0.47183337807655334
-0.31482237577438354
-0.23034867644309998
-0.07116947323083878
0.07564932107925415
0.21999996900558472
-1.8333334922790527
-1.6607162952423096
-1.5509313344955444
-1.3399226665496826
-1.234717845916748
-1.1078094244003296
-0.9273169636726379
-0.77316814661026
-0.6578916907310486
-0.5355592966079712
-0.4370826780796051
-0.17989303171634674
-0.11777506023645401
0.08688413351774216
0.25202250480651855
0.3666667342185974
-1.6866668462753296
-1.5408421754837036
-1.4249389171600342
-1.2442426681518555
-1.0674482583999634
-0.9823886752128601
-0.7941531538963318
-0.6855307817459106
-0.5091933608055115
-0.3900635540485382
-0.18911263346672058
-0.06562233716249466
0.15050014853477478
0.20117174088954926
0.38454824686050415
0.5133334398269653
-1.5399999618530273
-1.4445010423660278
-1.2239209413528442
-1.0941227674484253
-0.9109869599342346
-0.8013202548027039
-0.6247771382331848
-0.5523061156272888
-0.38128340244293213
-0.23734214901924133
-0.06526016443967819
0.10233385115861893
0.23788242042064667
0.3807715177536011
0.5192511081695557
0.660000205039978
-1.3933333158493042
-1.2336357831954956
-1.1335622072219849
-0.9290085434913635
-0.7939978837966919
-0.6821653246879578
-0.5030488967895508
-0.3664792776107788
-0.2152671217918396
-0.0878557488322258
0.04921494796872139
0.21561820805072784
0.38001272082328796
0.5526427626609802
0.7092393040657043
0.8066667318344116
-1.246666669845581
-1.059228539466858
-0.9963575005531311
-0.7691389918327332
-0.6360322833061218
-0.3967015743255615
-0.3560056984424591
-0.255293071269989
-0.0851164236664772
0.0661386251449585
0.21359601616859436
0.4228886365890503
0.49495813250541687
0.6118347644805908
0.8639101386070251
0.9533333778381348
-1.100000262260437
-0.929523766040802
-0.7854552865028381
-0.6745809316635132
-0.4807989299297333
-0.3013751208782196
-0.21204668283462524
-0.0796937346458435
0.08962076902389526
0.22523356974124908
0.39678528904914856
0.5217784643173218
0.6616548895835876
0.7893898487091064
0.9437146186828613
1.100000262260437
-0.9533333778381348
-0.7794201970100403
-0.6897327899932861
-0.49260854721069336
-0.31238314509391785
-0.25399670004844666
-0.07555463165044785
0.082168810069561
0.23346656560897827
0.34882912039756775
0.5161641836166382
0.6338005661964417
0.8300478458404541
0.9096018075942993
1.093748688697815
1.2466667890548706
-0.8066666722297668
-0.6600001454353333
-0.5133334398269653
-0.36666661500930786
-0.2199997901916504
-0.07333314418792725
0.07333338260650635
0.21999996900558472
0.3666667342185974
0.5133334398269653
0.660000205039978
0.8066669702529907
0.9533333778381348
1.100000023841858
1.2466665506362915
1.3933333158493042
-2.8600001335144043
-2.7133333683013916
-2.566666603088379
-2.4200000762939453
-2.2733330726623535
-2.12666654586792
-1.9800000190734863
-1.8333333730697632
-1.68666672706604
-1.5399999618530273
-1.3933334350585938
-1.246666669845581
-1.0999999046325684
-0.95333331823349
-0.8066666126251221
-0.6599999666213989
-2.7133333683013916
-2.591742753982544
-2.453631639480591
-2.283036708831787
-2.1572842597961426
-1.9248332977294922
-1.8436254262924194
-1.6352468729019165
-1.5411161184310913
-1.3831731081008911
-1.1865370273590088
-1.0754834413528442
-0.9287233352661133
-0.8074823617935181
-0.6875103116035461
-0.5133334398269653
-2.566666603088379
-2.4384827613830566
-2.283353805541992
-2.122004508972168
-1.984513521194458
-1.8265633583068848
-1.65768563747406
-1.5533453226089478
-1.4449459314346313
-1.209483027458191
-1.1313354969024658
-0.8885774612426758
-0.7979753613471985
-0.6923937201499939
-0.5553019046783447
-0.36666667461395264
-2.4200000762939453
-2.309840679168701
-2.130920648574829
-1.9518781900405884
-1.7759040594100952
-1.606243371963501
-1.5853327512741089
-1.3599530458450317
-1.2983280420303345
-1.2129641771316528
-0.9341897964477539
-0.8591530323028564
-0.7169959545135498
-0.5337279438972473
-0.3725951313972473
-0.21999990940093994
-2.2733330726623535
-2.1210765838623047
-1.9678893089294434
-1.808901071548462
-1.6695661544799805
-1.5743584632873535
-1.4014627933502197
-1.259110689163208
-1.0675618648529053
-1.0079149007797241
-0.7520211935043335
-0.734462320804596
-0.4299565553665161
-0.34394651651382446
-0.2009415477514267
-0.07333338260650635
-2.12666654586792
-1.9774354696273804
-1.8328371047973633
-1.7044434547424316
-1.5047322511672974
-1.3637281656265259
-1.1993787288665771
-1.1332149505615234
-0.9414559006690979
-0.7936316132545471
-0.7341354489326477
-0.4800783097743988
-0.2966756224632263
-0.21001587808132172
-0.037752680480480194
0.07333338260650635
-1.9800000190734863
-1.8144704103469849
-1.6981281042099
-1.548473596572876
-1.3452523946762085
-1.3084511756896973
-1.1739965677261353
-0.957506537437439
-0.7689796686172485
-0.6297623515129089
-0.5243797302246094
-0.35542604327201843
-0.16670279204845428
-0.08732323348522186
0.09363339841365814
0.22000014781951904
-1.8333332538604736
-1.7749874591827393
-1.5172971487045288
-1.3912264108657837
-1.2787177562713623
-1.1027107238769531
-0.8910451531410217
-0.8347505331039429
-0.7200995087623596
-0.549558699131012
-0.4287230372428894
-0.1632647067308426
-0.043754249811172485
0.048549991101026535
0.2752704322338104
0.36666667461395264
-1.68666672706604
-1.5522392988204956
-1.373835563659668
-1.2411609888076782
-1.0963934659957886
-0.8152763843536377
-0.8005968928337097
-0.6308398246765137
-0.5489029884338379
-0.32762736082077026
-0.20161008834838867
-0.12427172809839249
0.07027723640203476
0.20699113607406616
0.3716047704219818
0.5133334994316101
-1.5399999618530273
-1.365724802017212
-1.2776037454605103
-1.0510433912277222
-0.9623349905014038
-0.7542598843574524
-0.6365262866020203
-0.49411919713020325
-0.34966185688972473
-0.26906856894493103
-0.1366078406572342
0.11819104850292206
0.20961858332157135
0.35119423270225525
0.5379769206047058
0.6600000262260437
-1.3933334350585938
-1.2565175294876099
-1.1349287033081055
-0.9353843331336975
-0.8041743636131287
-0.6755695343017578
-0.5151053667068481
-0.37039390206336975
-0.22373820841312408
-0.07418662309646606
0.08328336477279663
0.252815842628479
0.34369465708732605
0.45501473546028137
0.6614890098571777
0.8066669702529907
-1.2466667890548706
-1.1032649278640747
-0.9234582185745239
-0.8485476970672607
-0.6458794474601746
-0.568134069442749
-0.3835766911506653
-0.20298311114311218
-0.10892391949892044
0.05832001194357872
0.2209133803844452
0.41211578249931335
0.4905085265636444
0.6652431488037109
0.7920949459075928
0.9533334970474243
-1.1000001430511475
-0.9559322595596313
-0.7837088704109192
-0.6292611956596375
-0.5008821487426758
-0.31940412521362305
-0.2343428134918213
-0.1248844787478447
0.06447052955627441
0.198619544506073
0.37149912118911743
0.45674994587898254
0.6345599293708801
0.7854703068733215
1.004334568977356
1.1000001430511475
-0.9533333778381348
-0.8190313577651978
-0.6968082785606384
-0.5075474977493286
-0.37069931626319885
-0.22988981008529663
-0.04285401105880737
0.058700066059827805
0.22546949982643127
0.35500553250312805
0.48697736859321594
0.6630929112434387
0.798123836517334
0.9688502550125122
1.1006418466567993
1.246666669845581
-0.8066668510437012
-0.6816341280937195
-0.5103614926338196
-0.37400397658348083
-0.25262880325317383
-0.08196356147527695
0.04382194206118584
0.20672622323036194
0.3705618679523468
0.525988757610321
0.6816953420639038
0.8205739259719849
0.9538351893424988
1.1187247037887573
1.2624826431274414
1.3933334350585938
-0.6600000262260437
-0.5133334398269653
-0.36666685342788696
-0.21999990940093994
-0.07333308458328247
0.07333362102508545
0.22000014781951904
0.36666667461395264
0.5133334994316101
0.6600000262260437
0.8066669702529907
0.9533334970474243
1.0999999046325684
1.2466667890548706
1.3933331966400146
1.540000081062317
-2.7133333683013916
-2.566666603088379
-2.4200000762939453
-2.2733330726623535
-2.12666654586792
-1.9800000190734863
-1.8333334922790527
-1.6866666078567505
-1.540000081062317
-1.3933335542678833
-1.246666669845581
-1.1000001430511475
-0.9533335566520691
-0.8066670298576355
-0.6600000858306885
-0.5133333206176758
-2.566666603088379
-2.427358388900757
-2.2539589405059814
-2.11963152885437
-1.960737943649292
-1.8133671283721924
-1.7630671262741089
-1.533493995666504
-1.379215121269226
-1.1994801759719849
-1.1135984659194946
-0.9284908175468445
-0.8089683651924133
-0.6047648787498474
-0.49844202399253845
-0.36666643619537354
-2.4200000762939453
-2.293809175491333
-2.1301450729370117
-1.980721354484558
-1.8408923149108887
-1.6742258071899414
-1.608630657196045
-1.3832283020019531
-1.3060601949691772
-1.1949011087417603
-0.9478762745857239
-0.8564741015434265
-0.6266350150108337
-0.45769181847572327
-0.3561771512031555
-0.2199997901916504
-2.2733330726623535
-2.042266845703125
-1.9619026184082031
-1.840494990348816
-1.7259910106658936
-1.477814793586731
-1.4482214450836182
-1.24685800075531
-1.1210782527923584
-0.9278396368026733
-0.7712775468826294
-0.6023331880569458
-0.4964832067489624
-0.41055431962013245
-0.19671018421649933
-0.07333314418792725
-2.12666654586792
-2.027510166168213
-1.8690402507781982
-1.6550610065460205
-1.4736393690109253
-1.4038352966308594
-1.302983283996582
-1.168052077293396
-0.9151054620742798
-0.7995246052742004
-0.7115486860275269
-0.5218790769577026
-0.30296674370765686
-0.2166157364845276
-0.08033017069101334
0.07333362102508545
-1.9800000190734863
-1.8322314023971558
-1.6523528099060059
-1.5674601793289185
-1.2974008321762085
-1.2661367654800415
-1.0506789684295654
-0.9764072895050049
-0.8490238189697266
-0.698885440826416
-0.4779629707336426
-0.45446112751960754
-0.1379225105047226
-0.11208423227071762
0.07241356372833252
0.2200002670288086
-1.8333333730697632
-1.6717475652694702
-1.590042233467102
-1.4002454280853271
-1.2091723680496216
-1.070185899734497
-0.9349714517593384
-0.8501898646354675
-0.5905159115791321
-0.5819239616394043
-0.3923344016075134
-0.3079473674297333
-0.03754889965057373
-0.002672188449651003
0.2674761414527893
0.36666667461395264
-1.68666672706604
-1.4881726503372192
-1.4528846740722656
-1.2052483558654785
-1.101697325706482
-0.8649601936340332
-0.7711935043334961
-0.7324221134185791
-0.5088507533073425
-0.3500174880027771
-0.1783418208360672
-0.033175598829984665
0.008303690701723099
0.2696651220321655
0.33543896675109863
0.5133335590362549
-1.5399999618530273
-1.4131550788879395
-1.2743933200836182
-1.0977829694747925
-1.0008645057678223
-0.8211583495140076
-0.6615601181983948
-0.48048681020736694
-0.3681829869747162
-0.23273029923439026
-0.058285534381866455
0.08248055726289749
0.24397845566272736
0.330817312002182
0.5006839036941528
0.6600001454353333
-1.3933333158493042
-1.2402554750442505
-1.077837347984314
-0.9713801145553589
-0.805635929107666
-0.6333552002906799
0.0
0.0
0.0
0.0
0.018889065831899643
0.3016124963760376
0.41644924879074097
0.5335226058959961
0.6374848484992981
0.8066667914390564
-1.246666669845581
-1.1303259134292603
-0.9659117460250854
-0.7748523354530334
-0.6495509743690491
-0.49710217118263245
0.0
0.0
0.0
0.0
0.22950269281864166
0.3238082826137543
0.5016460418701172
0.6981319189071655
0.8306653499603271
0.9533334970474243
-1.1000001430511475
-0.9212018847465515
-0.8200926780700684
-0.6677677035331726
-0.5079981684684753
-0.3782740533351898
0.0
0.0
0.0
0.0
0.38820675015449524
0.4926466941833496
0.630163311958313
0.9238401055335999
0.9664697051048279
1.1000001430511475
-0.9533334970474243
-0.8074361681938171
-0.5998690724372864
-0.5322194695472717
-0.3601765036582947
-0.1975657343864441
-0.08484147489070892
0.06719335168600082
0.24471071362495422
0.3806208670139313
0.5285161733627319
0.7312125563621521
0.747514545917511
0.9534313678741455
1.0726710557937622
1.2466667890548706
-0.8066667318344116
-0.6494311690330505
-0.49109628796577454
-0.3148585855960846
-0.2151792198419571
-0.06293138116598129
0.09386438876390457
0.1882980763912201
0.39413508772850037
0.5014645457267761
0.7088221907615662
0.8464250564575195
0.9816382527351379
1.081762671470642
1.2574023008346558
1.3933333158493042
-0.6600000858306885
-0.5127766132354736
-0.3878033459186554
-0.1799355447292328
-0.10706380009651184
0.03539177402853966
0.25190380215644836
0.4041822850704193
0.5145379900932312
0.6943239569664001
0.8310214281082153
1.0320888757705688
1.116734504699707
1.2617276906967163
1.3486067056655884
1.540000081062317
-0.5133333206176758
-0.36666643619537354
-0.2199997901916504
-0.07333332300186157
0.07333362102508545
0.2200002670288086
0.36666667461395264
0.5133335590362549
0.6600001454353333
0.8066667914390564
0.9533334970474243
1.1000001430511475
1.2466667890548706
1.3933333158493042
1.5399999618530273
1.6866668462753296
-2.566666603088379
-2.4200000762939453
-2.2733333110809326
-2.12666654586792
-1.9800000190734863
-1.8333334922790527
-1.68666672706604
-1.540000081062317
-1.3933334350585938
-1.246666669845581
-1.1000001430511475
-0.9533334970474243
-0.8066669702529907
-0.6600001454353333
-0.5133334994316101
-0.36666667461395264
-2.4200000762939453
-2.2390151023864746
-2.1396381855010986
-2.003737449645996
-1.8507331609725952
-1.6657108068466187
-1.5833220481872559
-1.381605863571167
-1.2804272174835205
-1.059164047241211
-1.0210611820220947
-0.8579918742179871
-0.6859588623046875
-0.5045819282531738
-0.37336480617523193
-0.21999990940093994
-2.2733333110809326
-2.1594042778015137
-1.9611562490463257
-1.8746627569198608
-1.6530250310897827
-1.5331851243972778
-1.3390283584594727
-1.1975959539413452
-1.1401677131652832
-0.8806179761886597
-0.7924966812133789
-0.6973597407341003
-0.46919190883636475
-0.34234219789505005
-0.22289986908435822
-0.07333314418792725
-2.12666654586792
-1.9885187149047852
-1.8168140649795532
-1.7079538106918335
-1.5976673364639282
-1.4486689567565918
-1.286694049835205
-1.1117180585861206
-0.9898932576179504
-0.7988136410713196
-0.7348117828369141
-0.5721330046653748
-0.34209778904914856
-0.20308706164360046
-0.07536256313323975
0.07333362102508545
-1.9800000190734863
-1.8691896200180054
-1.681335210800171
-1.4980018138885498
-1.377709984779358
-1.2129673957824707
-1.052538275718689
-0.9183729887008667
-0.7536717653274536
-0.7373092770576477
-0.42441555857658386
-0.4137003719806671
-0.2259802520275116
-0.08497186005115509
0.08133038878440857
0.2200002670288086
-1.8333334922790527
-1.7783005237579346
-1.5097275972366333
-1.347314476966858
-1.1758008003234863
-1.1230345964431763
-0.9934659004211426
-0.761093020439148
-0.6658446788787842
-0.5590786337852478
-0.33865439891815186
-0.23527468740940094
0.0009963329648599029
-0.03818609565496445
0.215604767203331
0.36666691303253174
-1.686666488647461
-1.4638296365737915
-1.3538590669631958
-1.2213820219039917
-1.098256230354309
-0.917892575263977
-0.8619027137756348
-0.6617398262023926
-0.5412288308143616
-0.37227708101272583
-0.2639455497264862
-0.14104053378105164
-0.024227328598499298
0.23663842678070068
0.3993777334690094
0.5133335590362549
-1.540000081062317
-1.4140639305114746
-1.238585114479065
-1.162710428237915
-0.9159566760063171
-0.7533472776412964
-0.6666224598884583
-0.5552217364311218
-0.34449198842048645
-0.22570422291755676
-0.10791429877281189
0.08488518744707108
0.16988791525363922
0.35998475551605225
0.4701748490333557
0.6599999666213989
-1.3933334350585938
-1.2214019298553467
-1.0964601039886475
-0.8695406317710876
-0.7376371026039124
-0.6566389203071594
-0.5103257298469543
-0.38100558519363403
-0.22875909507274628
-0.056566935032606125
0.0284905806183815
0.25813138484954834
0.34244710206985474
0.5058818459510803
0.6798525452613831
0.8066667318344116
-1.246666669845581
-1.1959428787231445
-0.9810298681259155
-0.8449174165725708
-0.6529009938240051
-0.474317342042923
0.0
0.0
0.0
0.0
0.2498512864112854
0.4144107401371002
0.4957118034362793
0.7086403369903564
0.8234888911247253
0.9533334374427795
-1.1000001430511475
-0.9694148898124695
-0.8474193811416626
-0.6091016530990601
-0.46359550952911377
-0.385196715593338
0.0
0.0
0.0
0.0
0.3506801724433899
0.45792436599731445
0.6767035722732544
0.7886354327201843
0.9356249570846558
1.1000001430511475
-0.9533334970474243
-0.7854889035224915
-0.633542001247406
-0.5465607047080994
-0.34680160880088806
-0.17655350267887115
0.0
0.0
0.0
0.0
0.49346503615379333
0.6358880996704102
0.833791196346283
0.9309983849525452
1.1563977003097534
1.246666669845581
-0.8066669702529907
-0.5966312289237976
-0.5034104585647583
-0.36299005150794983
-0.24983827769756317
-0.07297636568546295
0.0
0.0
0.0
0.0
0.629269540309906
0.8006396889686584
0.9594670534133911
1.1061187982559204
1.243621826171875
1.3933334350585938
-0.660000205039978
-0.5206806659698486
-0.41168415546417236
-0.18465007841587067
-0.010439114645123482
0.07558731734752655
0.2387661188840866
0.0
0.0
0.6486870646476746
0.840643048286438
0.9112184047698975
1.0509991645812988
1.2233093976974487
1.4106074571609497
1.5399999618530273
-0.5133335590362549
-0.3514818847179413
-0.29374760389328003
-0.08539985865354538
0.05576075613498688
0.2673914134502411
0.3615087568759918
0.4950608015060425
0.6581276655197144
0.8001470565795898
0.9398494958877563
1.0517514944076538
1.2147436141967773
1.4462859630584717
1.5442075729370117
1.6866668462753296
-0.3666667342185974
-0.21999996900558472
-0.07333290576934814
0.07333332300186157
0.2200002670288086
0.36666691303253174
0.5133335590362549