# vtk DataFile Version 3.0
Zombie Bunny baseline point cloud
ASCII
DATASET POLYDATA
POINTS 468 float
0.45315974950790405 0.7416810393333435 -0.05544988438487053
-1.0273970365524292 -0.07946518808603287 -0.8468798995018005
0.48396870493888855 -0.26614347100257874 -0.02149367146193981
0.17549289762973785 0.5087705850601196 0.3630375266075134
-1.0656541585922241 0.5417963266372681 0.5788465738296509
-1.0569484233856201 0.730526864528656 0.389614462852478
-0.030209923163056374 -0.32509493827819824 -0.9048559665679932
-1.000444769859314 0.36495524644851685 0.26016509532928467
0.4844774007797241 1.0104931592941284 -0.8383387327194214
-0.9789711236953735 -0.685116171836853 0.38419440388679504
-0.544516921043396 -0.9288702011108398 0.31751835346221924
0.7218961119651794 -0.8506593108177185 0.8800525665283203
0.5334863066673279 0.3458116054534912 1.0981227159500122
0.3373756408691406 -0.9615758061408997 -0.93171626329422
-0.5893673896789551 1.042236566543579 -0.39777159690856934
-0.5098475813865662 -0.20441339910030365 0.9434448480606079
0.830785870552063 0.012992994859814644 -0.9758092164993286
0.2918875813484192 0.18905287981033325 0.9999338388442993
-1.0353236198425293 0.659452497959137 0.9732493162155151
0.813043475151062 -0.6905404925346375 0.9224795699119568
-1.0691391229629517 0.24027113616466522 -0.1460895836353302
-0.5468399524688721 -0.8369435667991638 -0.7929404973983765
0.9192546010017395 0.3383748233318329 0.9202970266342163
-0.9509671926498413 0.5784668326377869 -0.5693618059158325
0.6996818780899048 -0.6295275688171387 -0.1018332988023758
-0.28627505898475647 0.1474698781967163 0.8197671175003052
-0.8563566207885742 0.8576858043670654 0.41054263710975647
0.3996497690677643 0.9114722013473511 0.4876803159713745
0.4709230363368988 0.7581928372383118 -0.6220840811729431
0.9663651585578918 -0.9964196681976318 -0.45505303144454956
0.8862830996513367 0.4849216043949127 -0.9657079577445984
-0.833433210849762 0.03225624933838844 -0.5729192495346069
-1.0822176933288574 -0.503601610660553 -0.3024691641330719
-0.7475024461746216 -0.6958053112030029 -0.2945496439933777
0.9365584254264832 0.2706336975097656 -0.3322348892688751
-0.41460058093070984 -0.6971842646598816 -0.28183281421661377
-0.4682041108608246 -1.037701964378357 0.5098708868026733
0.07081408053636551 -0.9771286249160767 -0.6986833214759827
0.6458241939544678 -0.5395846366882324 -0.11969152092933655
-1.0800305604934692 0.08878976851701736 0.635025680065155
-0.9167147278785706 0.13054049015045166 -1.0994246006011963
0.1594751626253128 0.7922503352165222 -0.4410181939601898
0.49117186665534973 -0.4340420365333557 0.5309062600135803
-0.44302308559417725 1.0098296403884888 -1.0282156467437744
0.7008407115936279 -0.74043869972229 -0.7378829121589661
0.2598474621772766 -0.5474514961242676 -0.23035086691379547
-0.6974585652351379 0.025342922657728195 -0.6618683338165283
-0.29793646931648254 -0.22999009490013123 -1.0345631837844849
-0.20713770389556885 0.35095298290252686 -0.8011233806610107
0.37654978036880493 0.6432732343673706 0.9320999383926392
0.446288138628006 -0.25672340393066406 -0.6093975901603699
-1.0348578691482544 0.8671313524246216 0.683810293674469
-0.5788701176643372 0.48822954297065735 -0.8309553265571594
-0.8819441795349121 -1.0236384868621826 0.3914774954319
-0.40293169021606445 0.6991168260574341 0.18187592923641205
-1.003524899482727 -0.43284350633621216 1.0076525211334229
0.7772529721260071 -0.18599258363246918 0.9592522382736206
-1.0779964923858643 0.4894378185272217 -1.0642952919006348
-0.7448833584785461 -0.8979253172874451 0.9241665005683899
-0.7181246280670166 -0.9044512510299683 0.01949494704604149
0.8862091302871704 0.7060660123825073 -0.24450327455997467
0.6897194385528564 0.6317623257637024 -0.4393126964569092
-0.40775859355926514 0.0876876562833786 -0.7161269187927246
0.10764586925506592 -0.5719813108444214 -0.09456148743629456
-0.6109710335731506 0.8308290243148804 -0.6430690884590149
0.06153985485434532 -0.8169834613800049 -0.9152600765228271
0.9094743132591248 0.5128087401390076 0.12400438636541367
0.9833131432533264 -0.9066765904426575 0.3370209038257599
-0.868659496307373 -0.7280998826026917 0.20265746116638184
0.9083272814750671 0.417044460773468 0.06495437026023865
-0.08970940113067627 1.0460798740386963 -0.06556328386068344
0.4623909890651703 -0.4533000886440277 -0.8055709600448608
0.4137057960033417 0.25468143820762634 -0.7813103199005127
-0.7478941679000854 -0.43741530179977417 -0.49306520819664
-0.5949999690055847 0.9683808088302612 -0.5126175880432129
0.7491971850395203 0.16270044445991516 0.6542849540710449
-1.0165472030639648 1.0390169620513916 -0.8067997694015503
-0.8011001944541931 -0.3353475034236908 -0.8746892809867859
-0.49710938334465027 -0.8965796828269958 -0.09595045447349548
-0.753643274307251 -0.24643030762672424 0.08306515216827393
0.7807058095932007 0.13496950268745422 -0.24371083080768585
-0.6239399313926697 0.6019838452339172 -0.2255694419145584
-1.0078099966049194 -1.0442655086517334 -0.9684827923774719
-0.3201487362384796 0.01943160966038704 -0.92033851146698
0.7931905388832092 -0.9930219054222107 -0.15398043394088745
0.006610374432057142 0.8400779962539673 -0.2983027994632721
-0.577782154083252 -0.29546529054641724 0.9373664259910583
0.15213292837142944 0.655479907989502 0.9865663647651672
0.18144164979457855 -0.6076666712760925 -0.7226693630218506
0.3259786069393158 1.0810215473175049 -0.3050799071788788
-0.7644762396812439 0.33189594745635986 0.5401321649551392
1.0762298107147217 0.21857377886772156 -0.6368428468704224
-0.1271643340587616 1.0792887210845947 0.48037785291671753
0.4469631314277649 0.4921252131462097 -0.5022061467170715
-0.17448848485946655 -0.33269503712654114 -0.20027990639209747
-0.5474253296852112 -0.8711551427841187 -0.7494807839393616
-0.9121845960617065 -0.009103278629481792 -0.9930706024169922
-0.06853003799915314 -0.6735363006591797 -0.972919762134552
0.8924856781959534 -0.3347567915916443 -0.9704806208610535
0.5839841365814209 0.05387169122695923 -0.8113824725151062
0.38023442029953003 0.07758426666259766 -0.04297786206007004
-0.44187915325164795 -0.5932831168174744 0.05961141735315323
0.28884920477867126 0.47507286071777344 -0.9846814870834351
0.6082053780555725 -0.9373223185539246 1.0920990705490112
-0.01057417318224907 0.3266962766647339 -0.9165353775024414
-0.44544023275375366 -0.5125889778137207 -1.0920791625976562
0.063304603099823 -0.9082546830177307 -0.3522617518901825
0.8145253658294678 -0.0322984978556633 -0.6340580582618713
-0.8876835107803345 -0.18406708538532257 0.34094271063804626
0.9855404496192932 0.19102169573307037 0.14337152242660522
-0.007420472335070372 -0.7755336165428162 0.2010064572095871
1.0409088134765625 -0.9591179490089417 -0.9002465009689331
0.24300329387187958 -0.5272622108459473 -0.26483601331710815
-0.4156236946582794 -0.15641753375530243 0.6371921300888062
-0.7558460831642151 -1.0602648258209229 -0.5339870452880859
0.17960834503173828 -0.5491310954093933 0.5351800322532654
0.7200672030448914 -0.6745049357414246 -0.7213081121444702
-0.584437370300293 -0.2981202304363251 0.704576849937439
-0.5900825262069702 0.6318582892417908 -0.34005191922187805
0.5081681609153748 0.9321792721748352 1.034436821937561
-1.0751973390579224 0.29564371705055237 0.2924420237541199
-0.5986098647117615 0.031414490193128586 -0.5696533918380737
1.0169745683670044 0.1049126386642456 0.677110493183136
0.39818599820137024 0.159871906042099 0.13934659957885742
-0.06330418586730957 -0.5451940298080444 -0.2334326207637787
-0.09166113287210464 0.5669544339179993 0.6135293245315552
0.5216747522354126 0.36421409249305725 -1.078604817390442
-0.39209017157554626 0.11263184994459152 0.5499200820922852
1.0736560821533203 0.5209338068962097 0.2972496449947357
0.537630021572113 -0.8899753093719482 -0.6344524621963501
-0.9206871390342712 1.0294970273971558 0.914340615272522
0.7999759912490845 -0.3376099765300751 0.7983872294425964
0.7226008176803589 -0.044910840690135956 1.0520118474960327
-0.08608031272888184 0.8233152031898499 -0.2016981691122055
-0.34545883536338806 0.7902340292930603 -0.2613449692726135
1.0577510595321655 0.5806047320365906 -0.42516547441482544
-0.21695570647716522 -1.0248156785964966 0.2759794592857361
-0.5990328788757324 0.7563215494155884 0.7492842078208923
0.7741371393203735 -0.22104309499263763 -0.25209611654281616
0.701783299446106 0.10523950308561325 -1.066458821296692
0.9503359198570251 -0.72487473487854 -1.058281421661377
0.5110763311386108 0.7986783385276794 0.9480440616607666
0.6371071934700012 0.325356125831604 0.790004551410675
0.3426237404346466 -0.908201277256012 -0.7237864136695862
0.4813622534275055 1.082779049873352 -0.08506099879741669
0.8493697047233582 -0.8154063820838928 -0.964401364326477
-0.8822948336601257 0.09832285344600677 -0.035534944385290146
-1.0165624618530273 0.14209690690040588 -0.13019093871116638
0.8122411966323853 -0.8145965933799744 0.6507618427276611
0.09423030912876129 -0.48847299814224243 0.5917955636978149
-1.073885440826416 -0.8933491706848145 -0.8205982446670532
-1.0852209329605103 0.9765206575393677 0.7968809604644775
-0.041290394961833954 -0.30531319975852966 1.0236659049987793
-0.9130444526672363 0.8915199637413025 0.28864970803260803
0.6021783351898193 0.9692965745925903 0.5066124796867371
-0.9670817255973816 -0.02691882848739624 -0.34294888377189636
0.7341459393501282 -0.6926867961883545 0.5018765330314636
0.7163572311401367 0.07471799850463867 -0.4914677143096924
0.5821783542633057 0.6967281699180603 -0.7239378094673157
0.7815312147140503 -0.9607069492340088 -0.8006132245063782
-0.7410303950309753 1.0326255559921265 -0.05541591718792915
0.3062690496444702 -0.28381067514419556 -0.7590392827987671
0.6356849074363708 -0.9573041200637817 0.02468067780137062
-0.3446670174598694 -0.027309074997901917 0.9005612730979919
0.04180321842432022 0.8010843992233276 -0.47415533661842346
0.8368985056877136 -0.23249530792236328 1.0902655124664307
-0.8916115164756775 0.021379180252552032 -0.4013667106628418
[...]
POINT_DATA 468
SCALARS solution float 1
LOOKUP_TABLE default
1.1229327917099
-1.954732060432434
0.1745825558900833
0.9217947125434875
0.06825302541255951
0.08673060685396194
-1.2488021850585938
-0.437181293964386
0.6407750248908997
-1.3023699522018433
-1.1735347509384155
0.7799746990203857
1.9706408977508545
-1.5423543453216553
0.05046181008219719
0.22653086483478546
-0.14745588600635529
1.5108263492584229
0.5935347080230713
1.013762354850769
-0.9650372862815857
-2.1759705543518066
2.1905784606933594
-0.9691434502601624
0.08251220732927322
0.6641359329223633
0.43204572796821594
1.7777098417282104
0.6118438243865967
-0.4986008405685425
0.4135482907295227
-1.3627489805221558
-1.8952564001083374
-1.686784029006958
0.8086667060852051
-1.3460053205490112
-1.0311172008514404
-1.563639521598816
0.012020091526210308
-0.37491241097450256
-1.8868968486785889
0.5336257815361023
0.5895886421203613
-0.47194963693618774
-0.7940981984138489
-0.5106683373451233
-1.4098408222198486
-1.6134089231491089
-0.6048181653022766
1.9264812469482422
-0.44674283266067505
0.49817219376564026
-0.9753424525260925
-1.5489312410354614
0.4262891709804535
-0.4305458962917328
1.5666977167129517
-1.6489979028701782
-0.702104926109314
-1.644812822341919
1.4094690084457397
0.871627151966095
-1.1321866512298584
-0.559575080871582
-0.37012553215026855
-1.6254324913024902
1.5205347537994385
0.41589707136154175
-1.3864154815673828
1.4258817434310913
0.898384153842926
-0.7487449049949646
-0.11715888231992722
-1.7137882709503174
-0.13052216172218323
1.625247597694397
-0.7845706343650818
-2.0084047317504883
-1.4917744398117065
-0.9145864844322205
0.566819429397583
-0.24197369813919067
-3.0385096073150635
-1.2678414583206177
-0.3583688735961914
0.5460432171821594
0.07709812372922897
1.7019429206848145
-1.1453979015350342
1.1151257753372192
0.0944763794541359
0.6509084105491638
1.4221943616867065
0.4576457440853119
-0.7181227803230286
-2.139939069747925
-1.8963186740875244
-1.7390482425689697
-0.42532140016555786
-0.11966344714164734
0.4490462839603424
-1.0026212930679321
-0.21906758844852448
0.7572281956672668
-0.5705161094665527
-2.0638349056243896
-1.2219257354736328
0.0841326043009758
-0.712822437286377
1.2972524166107178
-0.5377993583679199
-0.8112621903419495
-0.5471403002738953
0.06308173388242722
-2.334709644317627
0.17373406887054443
-0.6749025583267212
-0.26175540685653687
-0.30218440294265747
2.4791502952575684
-0.48923975229263306
-1.1267220973968506
1.811891794204712
0.6749925017356873
-0.8578287959098816
1.0792078971862793
-0.1736903041601181
0.2682202160358429
1.8773458003997803
-1.0362118482589722
1.0356162786483765
1.236047387123108
1.705541968345642
0.5370253324508667
0.16676019132137299
1.2395743131637573
-0.9665992259979248
0.9303935170173645
0.23877191543579102
-0.2749631106853485
-0.8203698992729187
2.2673757076263428
1.7441927194595337
-1.2304586172103882
1.4880619049072266
-0.9294184446334839
-0.8846767544746399
-0.9907731413841248
0.6528898477554321
0.1965216100215912
-2.7498278617858887
0.7009540796279907
0.6768075823783875
0.2459176778793335
2.060584306716919
-1.3513660430908203
0.585222065448761
0.33114737272262573
0.5881150364875793
-0.9671953916549683
0.23317284882068634
-0.8017802238464355
-0.25430020689964294
0.5480676889419556
0.39546868205070496
1.6961276531219482
-1.2051372528076172
0.3255952000617981
0.9238346219062805
1.0615500211715698
0.20104122161865234
1.324002981185913
-0.731452465057373
1.4779093265533447
0.566784143447876
-2.0152885913848877
2.051882028579712
0.06422971189022064
-0.37910541892051697
0.08104973286390305
-0.20597268640995026
0.399147093296051
-0.11075364798307419
1.6588246822357178
-0.293672114610672
-0.1701473891735077
0.1271839737892151
0.3786029815673828
-0.25894394516944885
0.02003333903849125
0.05891244485974312
-0.23932267725467682
-0.3975793421268463
-0.7299975156784058
-0.5508581399917603
0.31488707661628723
0.4262268841266632
-1.241658091545105
1.3395886421203613
-0.7628981471061707
-1.1702300310134888
0.5227912664413452
0.6069791316986084
-2.2524971961975098
-1.1153959035873413
0.4146028757095337
-1.04502534866333
-0.4139849543571472
0.34940269589424133
-0.2574465572834015
0.5615432262420654
0.2149372398853302
-0.9585007429122925
0.4705546200275421
-0.07085371017456055
1.2720630168914795
-0.3280927240848541
0.6390340924263
0.1349031776189804
-0.7636380195617676
0.519189178943634
1.19380521774292
2.233971118927002
1.3130666017532349
-0.47041812539100647
0.7638010382652283
-0.8799493908882141
-1.2817399501800537
1.265493392944336
0.722499668598175
0.919020414352417
-0.4725576341152191
0.23750393092632294
0.11582200229167938
-0.3431715667247772
2.168881893157959
0.9527081251144409
-0.0452960841357708
0.7969744801521301
-0.14531539380550385
1.6077626943588257
1.100097894668579
0.5422963500022888
-0.12270397692918777
-0.6166736483573914
-0.9336225390434265
0.7143915295600891
-0.5498292446136475
2.5513646602630615
1.5466485023498535
-0.2393283098936081
-1.8717180490493774
-0.06688147038221359
0.9749943017959595
1.1486235857009888
-1.2911102771759033
0.12924093008041382
-2.2035927772521973
1.3207952976226807
-1.6554542779922485
-0.15660962462425232
-1.0186153650283813
0.17517466843128204
0.09521616995334625
0.8586413860321045
-0.4069017767906189
-0.4331307113170624
1.7660958766937256
0.6944277286529541
-0.4200380742549896
1.9672030210494995
-1.2122689485549927
2.6533315181732178
0.7017512321472168
-2.106300115585327
0.38948503136634827
-2.2386136054992676
-1.1965140104293823
-0.9087381958961487
0.2911844551563263
0.47021085023880005
0.7107942700386047
-1.5247704982757568
-0.2828176021575928
2.9149844646453857
0.8457869291305542
-1.4962772130966187
0.7695448994636536
0.8551321625709534
-0.6922267079353333
2.2059218883514404
-0.27722254395484924
-1.4095280170440674
-0.041046496480703354
-1.1253503561019897
-1.4427480697631836
-1.6335574388504028
-0.9634338617324829
1.3851959705352783
-2.307576894760132
0.8858276605606079
1.913250207901001
1.090867042541504
-1.0115933418273926
-0.15916354954242706
-0.5858318209648132
-0.24305479228496552
0.17738670110702515
-2.014965295791626
-0.7014665603637695
-0.5925239324569702
0.6835986971855164
-1.1307764053344727
-1.615944266319275
0.5635185837745667
-0.45251429080963135
-0.33513951301574707
-0.42504286766052246
-1.1337112188339233
-1.1269927024841309
-0.08661561459302902
0.22067327797412872
0.8471513390541077
-1.660495638847351
0.015741022303700447
0.684660017490387
1.4920899868011475
-1.3995413780212402
0.2118944376707077
-0.30686381459236145
2.330573558807373
0.9795349836349487
-0.4824995696544647
1.15733802318573
0.317857563495636
0.7016153335571289
2.311185121536255
0.6973212361335754
-0.692548930644989
0.1495056450366974
-0.37486690282821655
-1.1896559000015259
1.8493694067001343
2.37880802154541
2.164494276046753
0.03274146839976311
-0.8658990859985352
0.44366157054901123
-1.4821279048919678
-0.4937516748905182
1.131539225578308
-0.5905216932296753
-1.4098114967346191
-0.23792664706707
-0.15480592846870422
-0.13823488354682922
0.09055382758378983
-2.189373731613159
1.0843555927276611
-0.7052796483039856
-0.6354588866233826
-0.7591471076011658
1.6978092193603516
-1.3747119903564453
-0.4074743092060089
-0.4744459390640259
-1.2197421789169312
-0.18331536650657654
0.19144102931022644
-0.40517568588256836
-1.0600197315216064
1.4113237857818604
0.9199305176734924
0.9834941625595093
1.2443431615829468
-2.142120838165283
1.3564165830612183
1.6694904565811157
0.1261175125837326
-1.2619909048080444
-0.5183837413787842
-0.41774284839630127
-0.09159346669912338
1.1229890584945679
-1.1155931949615479
-2.0933592319488525
1.8371052742004395
-0.7648172974586487
-1.1479902267456055
-0.9034445285797119
0.5874095559120178
0.016547920182347298
-0.6811057329177856
1.8110889196395874
-2.2185099124908447
0.08678507059812546
-1.8146580457687378
-1.8971372842788696
1.430707573890686
-0.3144834041595459
-0.7448824048042297
0.16610930860042572
-0.36003345251083374
-1.320202112197876
1.4012395143508911
-1.3072197437286377
-1.199722409248352
1.1249531507492065
1.0086749792099
-0.003876881906762719
-0.2857780158519745
-1.0064544677734375
-1.8270028829574585
-0.2723584473133087
2.5056440830230713
1.334253191947937
1.5049625635147095
-1.9895840883255005
1.5387582778930664
0.2354270964860916
-0.5411579608917236
-0.9676572680473328
-0.3621191680431366
1.7031011581420898
-0.961834728717804
0.6770781874656677
1.9984748363494873
-0.21195751428604126
-0.45351919531822205
0.6210529208183289
-0.8722160458564758
1.0702786445617676
-0.2013266384601593
0.3871886432170868
1.480583906173706
-0.3209584057331085
-2.073418617248535
-1.2737773656845093
-0.024920694530010223
-2.397836208343506
-1.456285834312439
-1.075441598892212
0.39467301964759827
2.4334211349487305
1.0908057689666748
0.7360109686851501
2.3891053199768066
-0.5172721743583679
1.035951018333435
-0.6709029674530029
-1.2636762857437134
1.5478571653366089
0.13292746245861053
-0.12895449995994568
1.6162856817245483
-0.06587060540914536
-0.9514182806015015
0.16411961615085602
-1.4439009428024292
1.4453022480010986
-1.1292669773101807
0.19151046872138977
-0.952274739742279
-0.8049278855323792
-1.945330023765564
-0.7149189114570618
-1.2432235479354858
-0.009528174065053463
SCALARS exact float 1
LOOKUP_TABLE default
1.139390904456377
-1.9537421241402626
0.19633156247437
1.047301009297371
0.054988741874694824
0.06319290399551392
-1.2601608280092478
-0.37532442808151245
0.6566318273544312
-1.2798928916454315
-1.1558687686920166
0.7512893676757812
1.9774206280708313
-1.555916428565979
0.05509757995605469
0.2291838675737381
-0.13203035108745098
1.4808743000030518
0.5973781943321228
1.0449825525283813
-0.9749575704336166
-2.1767240166664124
2.1779264509677887
-0.941862165927887
-0.03167898952960968
0.680961936712265
0.4118718206882477
1.7988022863864899
0.6070317924022675
-0.48510754108428955
0.405496746301651
-1.3740962110459805
-1.8882884681224823
-1.7378574013710022
0.8749572336673737
-1.3936176598072052
-0.9960351884365082
-1.6049978658556938
-0.013451963663101196
-0.35621511191129684
-1.8855988383293152
0.5107073038816452
0.5880360901355743
-0.4614090919494629
-0.7774809002876282
-0.5179549008607864
-1.333983976393938
-1.5624897480010986
-0.6573081016540527
1.9519229531288147
-0.41983285546302795
0.5160837769508362
-0.9215959012508392
-1.5141051709651947
0.4780610650777817
-0.42871588468551636
1.5505126267671585
-1.6528539657592773
-0.7186421751976013
-1.6030809320509434
1.347771868109703
0.8821690678596497
-1.0361978560686111
-0.55889692902565
-0.42321109771728516
-1.6707036830484867
1.546287439763546
0.41365745663642883
-1.3941019177436829
1.3903261125087738
0.8908071890473366
-0.7964800596237183
-0.11292308568954468
-1.6783746778964996
-0.13923674821853638
1.5661825835704803
-0.7843300104141235
-2.01113697886467
-1.4896395206451416
-0.9170084297657013
0.671964481472969
-0.24752552807331085
-3.0205582976341248
-1.2210556380450726
-0.3538118004798889
0.5483855712227523
0.06411898136138916
1.7941792011260986
-1.1488943845033646
1.101920247077942
0.10755187273025513
0.6579607427120209
1.4325022399425507
0.4368821978569031
-0.7074634283781052
-2.1680612564086914
-1.9143584771081805
-1.7149861007928848
-0.4127517342567444
-0.17352664470672607
0.41484082490205765
-0.9755508527159691
-0.22075942158699036
0.7629821300506592
-0.6004132740199566
-2.0501083731651306
-1.1972118318080902
0.14816880971193314
-0.7308078855276108
1.3199336677789688
-0.5819476316682994
-0.8184556365013123
-0.5490949302911758
0.0651509016752243
-2.350097954273224
0.16565728187561035
-0.6757458448410034
-0.17798075079917908
-0.2982761561870575
2.474784255027771
-0.4871115982532501
-1.1368487663567066
1.798997700214386
0.6974045038223267
-0.8419308364391327
1.0888226255774498
-0.19271597266197205
0.2704617604613304
1.8918395340442657
-0.9867977499961853
1.0231505036354065
1.2607532441616058
1.7297018244862556
0.5355367213487625
0.18343022465705872
1.2131903171539307
-0.9657919257879257
0.9065728783607483
0.30099792778491974
-0.2594360187649727
-0.8328202366828918
2.257798731327057
1.7524678707122803
-1.2893639504909515
1.4790803045034409
-0.9304380416870117
-0.8195069245994091
-1.0046564936637878
0.648406445980072
0.1975528746843338
-2.7878328561782837
0.688180685043335
0.6770623102784157
0.2671252191066742
2.0780873894691467
-1.3369494378566742
0.5433356761932373
0.299607515335083
0.5549687147140503
-0.9797889590263367
0.23617924377322197
-0.7365809082984924
-0.29693853482604027
0.5285851806402206
0.3687322810292244
1.694668710231781
-1.2715990468859673
0.30678974092006683
0.9085543155670166
1.0868756771087646
0.14886874705553055
1.3178684711456299
-0.7901403903961182
1.4648173153400421
0.5271115303039551
-2.018154926598072
2.0495971962809563
0.10809695720672607
-0.36156684160232544
0.09270371496677399
-0.20477738231420517
0.406869500875473
-0.10202175378799438
1.614077389240265
-0.28586508333683014
-0.11786491191014647
0.15200287103652954
0.38366225361824036
-0.2612138092517853
0.04967716336250305
0.11700467765331268
-0.25393956154584885
-0.38631539046764374
-0.7088814824819565
-0.5315244570374489
0.3476581573486328
0.4185713827610016
-1.2445234283804893
1.3632955327630043
-0.7375027406960726
-1.1282119154930115
0.47499847412109375
0.6059689112007618
-2.2703553438186646
-1.1163679361343384
0.3912307694554329
-1.0388967394828796
-0.4087468385696411
0.3363631069660187
-0.3383054733276367
0.5881650000810623
0.14978766068816185
-0.9746424555778503
0.4347802400588989
-0.062625952064991
1.2645001411437988
-0.45117422938346863
0.6305299997329712
0.1184711642563343
-0.8259906265884638
0.550563633441925
1.2200202345848083
2.2201538681983948
1.2967970818281174
-0.4638599157333374
0.767905205488205
-0.8703616857528687
-1.2860514298081398
1.2576833441853523
0.7310871779918671
0.9383382108062506
-0.41048967838287354
0.25279711186885834
0.10042613744735718
-0.3287958949804306
2.144138067960739
0.9600059986114502
-0.08205732703208923
0.8255106806755066
-0.14214631915092468
1.5199697613716125
1.1813721060752869
0.5509406477212906
-0.1554810255765915
-0.6288719773292542
-0.9415854811668396
0.7062769383192062
-0.5477015003561974
2.5350369215011597
1.528971403837204
-0.194747656583786
-1.8183497190475464
-0.08154721558094025
0.9712584614753723
1.1002157405018806
-1.2312310338020325
0.11543264985084534
-2.1886309385299683
1.3176535964012146
-1.7245144248008728
-0.18189135193824768
-1.0082506090402603
0.191084086894989
0.11697816848754883
0.9244747906923294
-0.4058273732662201
-0.4481939859688282
1.7765749096870422
0.6323032826185226
-0.4142623841762543
1.9486601650714874
-1.2115423083305359
2.6339393854141235
0.6840324401855469
-2.1108168363571167
0.3797727352939546
-2.2167335152626038
-1.1754306256771088
-0.9877530187368393
0.2835547775030136
0.5309542119503021
0.7208271622657776
-1.5193909779191017
-0.2567959064617753
2.913772463798523
0.8140975832939148
-1.4961961507797241
0.7503713518381119
0.8243062347173691
-0.7716684192419052
2.202883005142212
-0.32117225229740143
-1.354348748922348
-0.04016140103340149
-1.0911540687084198
-1.3790020234882832
-1.6286325380206108
-0.975173830986023
1.3523987531661987
-2.2632983326911926
0.8874091506004333
1.9705867767333984
1.0559260845184326
-0.9968768805265427
-0.17015773057937622
-0.5625336170196533
-0.23519427329301834
0.1544802486896515
-2.0151112377643585
-0.6986788958311081
-0.606709860265255
0.7053095698356628
-1.1132603883743286
-1.6116781178861856
0.5797392725944519
-0.5300295524575631
-0.3314701318740845
-0.4671047329902649
-1.1987590491771698
-1.1067330166697502
-0.07060569524765015
0.2218058854341507
0.8322268724441528
-1.6385540515184402
0.01225849986076355
0.6825025975704193
1.4573839455842972
-1.3821357190608978
0.2054358422756195
-0.32263529673218727
2.3232367038726807
0.984299972653389
-0.5015819668769836
1.1147260665893555
0.2892441153526306
0.6986217498779297
2.2752068638801575
0.6873197555541992
-0.7270507528446615
0.10135757923126221
-0.4193198177963495
-1.1586202681064606
1.8687878251075745
2.382308006286621
2.1373558044433594
-0.01937424438074231
-0.8978953957557678
0.4684891141951084
-1.418153002858162
-0.5682297348976135
1.1498643159866333
-0.6487712264060974
-1.374484658241272
-0.24927108362317085
-0.14989227056503296
-0.14051039516925812
0.15785261988639832
-2.180975317955017
1.1172665059566498
-0.66871178150177
-0.6277830228209496
-0.7422841116786003
1.6992238461971283
-1.481033068150282
-0.38611841201782227
-0.4869539812207222
-1.2048156261444092
-0.20266667008399963
0.18488496355712414
-0.44571466743946075
-1.0546526908874512
1.3929502815008163
0.9129804372787476
0.9838891625404358
1.2541018463671207
-2.1539094746112823
1.3838423639535904
1.7157667726278305
0.11242036521434784
-1.2491364628076553
-0.5156983211636543
-0.3631642162799835
-0.08086324390023947
1.062288612127304
-1.1060154549777508
-2.119548410177231
1.8729598224163055
-0.8074773550033569
-1.1273563504219055
-0.8960377126932144
0.551828034222126
0.08239239454269409
-0.6884421845898032
1.7951338365674019
-2.189183294773102
0.15584057569503784
-1.7764374017715454
-1.889721691608429
1.4548656344413757
-0.32711663097143173
-0.6984332650899887
0.1895195096731186
-0.39481520652770996
-1.3494943976402283
1.3741156458854675
-1.2972146049141884
-1.1961182206869125
1.126339316368103
0.9853384494781494
-0.017573446035385132
-0.2509099543094635
-1.0008757747709751
-1.7963938415050507
-0.25836820900440216
2.503578782081604
1.4018916338682175
1.4885169044137
-1.9828197956085205
1.5198687389492989
0.2217106819152832
-0.5667710304260254
-0.9752286821603775
-0.36438319087028503
1.6506275832653046
-0.9833055436611176
0.6686499118804932
1.9845202565193176
-0.27381740510463715
-0.39228229969739914
0.6205673217773438
-0.8897683036630042
1.0681982189416885
-0.1794200837612152
0.39464298635721207
1.5109659433364868
-0.2980908043682575
-2.0530867278575897
-1.2687681317329407
0.035405371338129044
-2.364926338195801
-1.4313800036907196
-0.9817524701356888
0.41519173979759216
2.430413633584976
1.0350179187953472
0.6793833281844854
2.376022160053253
-0.5273039042949677
1.0158884525299072
-0.6832625865936279
-1.194543980062008
1.5012970566749573
0.1655978262424469
-0.13279107958078384
1.6028911024332047
-0.07377483323216438
-0.9187348335981369
0.16034872084856033
-1.435144454240799
1.5065669193863869
-1.1075629889965057
0.1992321591824293
-0.9623061269521713
-0.8041607737541199
-1.943233521655202
-0.7376188039779663
-1.2471091449260712
0.024718147236853838
SCALARS abs_error float 1
LOOKUP_TABLE default
0.016458112746477127
0.0009899362921714783
0.02174900658428669
0.12550629675388336
0.013264283537864685
0.02353770285844803
0.01135864295065403
0.061856865882873535
0.015856802463531494
0.022477060556411743
0.017665982246398926
0.028685331344604492
0.006779730319976807
0.01356208324432373
0.004635769873857498
0.0026530027389526367
0.015425534918904305
0.029952049255371094
0.0038434863090515137
0.031220197677612305
0.009920284152030945
0.0007534623146057129
0.012652009725570679
0.02728128433227539
0.1141911968588829
0.016826003789901733
0.02017390727996826
0.02109244465827942
0.004812031984329224
0.01349329948425293
0.008051544427871704
0.011347230523824692
0.0069679319858551025
0.05107337236404419
0.06629052758216858
0.04761233925819397
0.03508201241493225
0.0413583442568779
0.025472055189311504
0.01869729906320572
0.0012980103492736816
0.022918477654457092
0.0015525519847869873
0.010540544986724854
0.016617298126220703
0.007286563515663147
0.07585684582591057
0.050919175148010254
0.05248993635177612
0.02544170618057251
0.026909977197647095
0.017911583185195923
0.053746551275253296
0.034826070070266724
0.051771894097328186
0.0018300116062164307
0.016185089945793152
0.003856062889099121
0.016537249088287354
0.04173189029097557
0.06169714033603668
0.010541915893554688
0.09598879516124725
0.0006781518459320068
0.0530855655670166
0.045271191745996475
0.025752685964107513
0.002239614725112915
0.007686436176300049
0.035555630922317505
0.007576964795589447
0.04773515462875366
0.004235796630382538