# vtk DataFile Version 3.0
WoSt boundary bias detector
ASCII
DATASET STRUCTURED_POINTS
DIMENSIONS 8 8 8
ORIGIN -0.22 -0.22 -0.22
SPACING 0.062857144 0.062857144 0.062857144
POINT_DATA 512
SCALARS solution_epsilon float 1
LOOKUP_TABLE default
-0.65999997
-0.59714282
-0.53428566
-0.47142857
-0.40857142
-0.34571427
-0.28285715
-0.22
-0.59714282
-0.53428566
-0.47142854
-0.40857142
-0.34571427
-0.28285712
-0.22
-0.15714285
-0.53428566
-0.47142854
-0.40857142
-0.34571427
-0.28285712
-0.21999998
-0.15714286
-0.094285712
-0.47142857
-0.40857142
-0.34571427
-0.28285715
-0.22
-0.15714285
-0.094285727
-0.031428576
-0.40857142
-0.34571427
-0.28285712
-0.22
-0.15714285
-0.094285697
-0.031428576
0.031428576
-0.34571427
-0.28285712
-0.21999998
-0.15714285
-0.094285697
-0.031428546
0.031428576
0.094285727
-0.28285715
-0.22
-0.15714286
-0.094285727
-0.031428576
0.031428576
0.094285697
0.15714285
-0.22
-0.15714285
-0.094285712
-0.031428576
0.031428576
0.094285727
0.15714285
0.22
-0.59714282
-0.53428566
-0.47142854
-0.40857142
-0.34571427
-0.28285712
-0.22
-0.15714285
-0.53428566
-0.48230448
-0.42537752
-0.35117155
-0.33504248
-0.21950617
-0.13833958
-0.094285697
-0.47142854
-0.41244766
-0.38221654
-0.34557468
-0.27082559
-0.17424576
-0.090857662
-0.031428561
-0.40857142
-0.33699706
-0.28838235
-0.24439552
-0.16623096
-0.15417938
-0.06747283
0.031428576
-0.34571427
-0.31388858
-0.25046682
-0.17481659
-0.033836361
-0.049476985
0.050448086
0.094285727
-0.28285712
-0.24818352
-0.13205232
-0.060223021
-0.091213308
0.093527503
0.11077511
0.15714288
-0.22
-0.23911035
-0.11559068
-0.087946326
0.021636808
0.15364112
0.19920963
0.22
-0.15714285
-0.094285697
-0.031428561
0.031428576
0.094285727
0.15714288
0.22
0.28285715
-0.53428572
-0.47142857
-0.40857142
-0.34571427
-0.28285712
-0.21999998
-0.15714286
-0.094285712
-0.47142857
-0.39926323
-0.32719967
-0.28533712
-0.24582686
-0.18724817
-0.024600854
-0.031428561
-0.40857142
-0.36198813
-0.30064437
-0.30844817
-0.10979333
-0.052055456
-0.00073987152
0.031428576
-0.34571427
-0.31596631
-0.12231824
-0.17221864
-0.17116942
-0.077458717
0.054806598
0.094285712
nan
-0.19072674
-0.17545964
-0.23339798
-0.1123627
0.041159734
0.036468908
0.15714286
-0.21999998
-0.22729762
-0.23490351
-0.10256434
-0.068813324
0.046431556
0.090668313
0.22000001
-0.15714286
-0.11465891
-0.071177199
0.01954538
0.050366715
0.18934973
0.22511378
0.28285712
-0.094285712
-0.031428561
0.031428576
0.094285712
0.15714286
0.22000001
0.28285712
0.34571427
-0.47142857
-0.40857142
-0.34571427
-0.28285715
-0.22
-0.15714285
-0.094285727
-0.031428576
-0.40857142
-0.31671825
-0.2571077
-0.22452673
-0.16205907
-0.12125428
-0.041344617
0.031428576
-0.34571427
-0.27480495
-0.22227791
-0.19393387
-0.06766732
-0.013758389
-0.020396417
0.094285712
-0.28285715
-0.22490542
-0.15643284
-0.23219053
-0.039564032
0.12493378
0.036684401
0.15714285
-0.22
-0.16223247
-0.15793981
-0.30631298
-0.16249263
0.073331699
0.087900095
0.22
-0.15714285
-0.084184341
-0.1036668
-0.12979148
0.10158249
0.27854922
0.20758592
0.28285715
-0.094285727
-0.083626144
-0.16591989
0.028298993
0.17600194
0.28077242
0.28543058
0.34571427
-0.031428576
0.031428576
0.094285712
0.15714285
0.22
0.28285715
0.34571427
0.40857142
-0.40857142
-0.34571427
-0.28285712
-0.22
-0.15714285
-0.094285697
-0.031428576
0.031428576
-0.34571427
-0.33004683
-0.23198003
-0.17671408
-0.06931787
0.0098560033
0.04500863
0.094285727
-0.28285712
-0.21781148
-0.20768641
-0.13468155
0.01939613
-0.00016245106
0.095456861
0.15714286
-0.22
-0.27156225
-0.093900003
-0.15251313
-0.0032030086
0.0026645651
0.12738995
0.22
-0.15714285
-0.065383047
-0.14001007
-0.087694079
-0.014526034
0.20152542
0.18952064
0.28285715
-0.094285697
-0.13086322
-0.021048298
nan
nan
0.20807135
0.33175686
0.3457143
-0.031428576
0.042089276
0.14627622
0.31431478
0.30772448
0.29247245
0.3077313
0.40857142
0.031428576
0.094285727
0.15714286
0.22
0.28285715
0.3457143
0.40857142
0.47142857
-0.34571427
-0.28285712
-0.21999997
-0.15714285
-0.094285697
-0.031428546
0.031428576
0.094285727
-0.28285712
-0.20295253
-0.17434202
-0.15443297
-0.095929012
0.045178801
0.094744064
0.15714288
-0.21999997
-0.22105604
-0.040804841
0.021379001
0.025729051
0.037128679
0.10536259
0.22000001
-0.15714285
-0.061440259
-0.12453607
-0.02537445
0.090066344
0.075182937
0.18499343
0.28285715
-0.094285697
-0.0072569707
0.057162218
0.15143886
0.29692352
0.31093913
0.28438202
0.3457143
-0.031428546
0.13299124
0.083735891
0.29645765
0.17516729
0.26013812
0.3882809
0.40857145
0.031428576
0.070075542
nan
0.34552941
0.28365621
0.35790092
0.45069435
0.47142857
0.094285727
0.15714288
0.22000001
0.28285715
0.3457143
0.40857145
0.47142857
0.53428572
-0.28285715
-0.22
-0.15714285
-0.094285727
-0.031428576
0.031428576
0.094285697
0.15714285
-0.22
-0.16779159
-0.11915433
0.04522866
0.036164369
0.15062904
0.15887927
0.22
-0.15714285
-0.070975065
-0.014565988
0.042975675
0.16253307
0.12926199
0.21067935
0.28285712
-0.094285727
-0.067840256
0.051428974
0.052916884
0.092035428
0.24241193
0.31075484
0.34571427
-0.031428576
0.10638981
0.025184974
0.18983726
0.27462959
0.29190183
0.32235184
0.40857142
0.031428576
0.13666165
0.14815204
0.1824239
0.34716132
0.43102857
0.34805539
0.47142857
0.094285697
0.15034801
0.2133017
0.29775026
0.37171602
0.42226493
0.49225309
0.53428566
0.15714285
0.22
0.28285712
0.34571427
0.40857142
0.47142857
0.53428566
0.59714282
-0.22
-0.15714285
-0.094285697
-0.031428576
0.031428576
0.094285727
0.15714285
0.22
-0.15714285
-0.094285697
-0.031428546
0.031428576
0.094285727
0.15714288
0.22
0.28285715
-0.094285697
-0.031428546
0.031428576
0.094285712
0.15714286
0.22000001
0.28285712
0.34571427
-0.031428576
0.031428576
0.094285712
0.15714285
0.22
0.28285715
0.34571427
0.40857142
0.031428576
0.094285727
0.15714286
0.22
0.28285715
0.3457143
0.40857142
0.47142857
0.094285727
0.15714288
0.22000001
0.28285715
0.3457143
0.40857145
0.47142857
0.53428572
0.15714285
0.22
0.28285712
0.34571427
0.40857142
0.47142857
0.53428566
0.59714282
0.22
0.28285715
0.34571427
0.40857142
0.47142857
0.53428572
0.59714282
0.65999997
SCALARS solution_epsilon_half float 1
LOOKUP_TABLE default
-0.65999997
-0.59714282
-0.53428566
-0.47142857
-0.40857142
-0.34571427
-0.28285715
-0.22
-0.59714282
-0.53428566
-0.47142854
-0.40857142
-0.34571427
-0.28285712
-0.22
-0.15714285
-0.53428566
-0.47142854
-0.40857142
-0.34571427
-0.28285712
-0.21999998
-0.15714286
-0.094285712
-0.47142857
-0.40857142
-0.34571427
-0.28285715
-0.22
-0.15714285
-0.094285727
-0.031428576
-0.40857142
-0.34571427
-0.28285712
-0.22
-0.15714285
-0.094285697
-0.031428576
0.031428576
-0.34571427
-0.28285712
-0.21999998
-0.15714285
-0.094285697
-0.031428546
0.031428576
0.094285727
-0.28285715
-0.22
-0.15714286
-0.094285727
-0.031428576
0.031428576
0.094285697
0.15714285
-0.22
-0.15714285
-0.094285712
-0.031428576
0.031428576
0.094285727
0.15714285
0.22
-0.59714282
-0.53428566
-0.47142854
-0.40857142
-0.34571427
-0.28285712
-0.22
-0.15714285
-0.53428566
-0.50208688
-0.43314058
-0.36214054
-0.2777268
-0.15582183
-0.16591358
-0.094285697
-0.47142854
-0.35623336
-0.38547778
-0.33462638
-0.23147056
-0.12635538
-0.095974728
-0.031428561
-0.40857142
-0.33408785
-0.28058776
-0.24003664
-0.11332212
-0.12846607
-0.066753462
0.031428576
-0.34571427
-0.24730955
-0.32801276
-0.19455871
-0.063300602
-0.061475329
0.041764151
0.094285727
-0.28285712
-0.22683322
-0.18716192
-0.12693673
-0.096733153
-0.0040916046
0.083744302
0.15714288
-0.22
-0.21104901
-0.083406076
-0.071060382
0.018786848
0.046362516
0.16384983
0.22
-0.15714285
-0.094285697
-0.031428561
0.031428576
0.094285727
0.15714288
0.22
0.28285715
-0.53428572
-0.47142857
-0.40857142
-0.34571427
-0.28285712
-0.21999998
-0.15714286
-0.094285712
-0.47142857
-0.4329538
-0.34957665
-0.28782383
-0.28401515
-0.15767939
-0.028200045
-0.031428561
-0.40857142
-0.3767654
-0.32951823
-0.23558599
-0.10846652
-0.063056268
0.023674574
0.031428576
-0.34571427
-0.3278923
-0.20426473
-0.12378484
-0.16426635
-0.080010101
0.03521578
0.094285712
nan
-0.19116038
-0.24476239
-0.10808302
-0.02633113
0.045218349
0.09521082
0.15714286
-0.21999998
-0.19634555
-0.05557362
-0.061013874
-0.022838047
0.061117616
0.15800619
0.22000001
-0.15714286
-0.072855949
-0.11145739
0.084826306
0.073480584
0.092380702
0.15904176
0.28285712
-0.094285712
-0.031428561
0.031428576
0.094285712
0.15714286
0.22000001
0.28285712
0.34571427
-0.47142857
-0.40857142
-0.34571427
-0.28285715
-0.22
-0.15714285
-0.094285727
-0.031428576
-0.40857142
-0.35964161
-0.29292354
-0.25906774
-0.15305652
-0.10724561
-0.032012533
0.031428576
-0.34571427
-0.2887111
-0.168842
-0.16091537
0.029592754
0.033781476
-0.059462968
0.094285712
-0.28285715
-0.24611846
-0.21858092
-0.16968949
-0.067554399
0.094081707
0.068354152
0.15714285
-0.22
-0.19054452
-0.098366305
-0.18843566
-0.096332714
0.12539479
0.070976473
0.22
-0.15714285
-0.086651877
-0.15341891
-0.096860796
0.12052419
0.26142195
0.20092665
0.28285715
-0.094285727
-0.031637281
0.0017160637
-0.012543425
0.017643603
0.24440108
0.30705673
0.34571427
-0.031428576
0.031428576
0.094285712
0.15714285
0.22
0.28285715
0.34571427
0.40857142
-0.40857142
-0.34571427
-0.28285712
-0.22
-0.15714285
-0.094285697
-0.031428576
0.031428576
-0.34571427
-0.32847208
-0.27976507
-0.13630283
-0.093832187
0.0039345305
0.023038667
0.094285727
-0.28285712
-0.26133654
-0.23190042
-0.17071533
0.007009069
-0.01674284
0.11445861
0.15714286
-0.22
-0.2381486
-0.083884798
-0.10903329
-0.022269735
0.096180141
0.12997492
0.22
-0.15714285
-0.11030006
-0.14298019
-0.044701211
0.045465212
0.12000945
0.27616847
0.28285715
-0.094285697
-0.1017836
-0.052439794
nan
nan
0.26594943
0.34646389
0.3457143
-0.031428576
0.11642918
0.13667464
0.25020251
0.30480742
0.3398084
0.36440372
0.40857142
0.031428576
0.094285727
0.15714286
0.22
0.28285715
0.3457143
0.40857142
0.47142857
-0.34571427
-0.28285712
-0.21999997
-0.15714285
-0.094285697
-0.031428546
0.031428576
0.094285727
-0.28285712
-0.14017108
-0.12268358
-0.15785548
-0.086468801
0.0088449279
0.082343042
0.15714288
-0.21999997
-0.21371174
-0.064017713
-0.022396361
0.027331896
0.02704381
0.13067819
0.22000001
-0.15714285
-0.075595111
-0.1598739
-0.027343063
0.11773204
0.06653399
0.18690135
0.28285715
-0.094285697
-0.030162571
-0.010618253
0.087463833
0.11983711
0.29344895
0.29339871
0.3457143
-0.031428546
0.018881692
0.058914132
0.21712922
0.15934803
0.29318884
0.3781167
0.40857145
0.031428576
0.15186353
nan
0.29993582
0.30401096
0.37726128
0.46215287
0.47142857
0.094285727
0.15714288
0.22000001
0.28285715
0.3457143
0.40857145
0.47142857
0.53428572
-0.28285715
-0.22
-0.15714285
-0.094285727
-0.031428576
0.031428576
0.094285697
0.15714285
-0.22
-0.18898262
-0.10481527
-0.026733935
0.011609834
0.16675809
0.2021448
0.22
-0.15714285
-0.10336186
-0.05684606
0.050908357
0.17396191
0.15183456
0.2484892
0.28285712
-0.094285727
-0.096065007
0.082724877
0.041997384
0.13158864
0.27888986
0.28440717
0.34571427
-0.031428576
0.046925884
0.074472614
0.21746135
0.19192602
0.31435844
0.32341713
0.40857142
0.031428576
0.1651314
0.18419626
0.22521836
0.23929012
0.29599652
0.38361755
0.47142857
0.094285697
0.14998324
0.20147832
0.32378596
0.35722777
0.4451409
0.47185391
0.53428566
0.15714285
0.22
0.28285712
0.34571427
0.40857142
0.47142857
0.53428566
0.59714282
-0.22
-0.15714285
-0.094285697
-0.031428576
0.031428576
0.094285727
0.15714285
0.22
-0.15714285
-0.094285697
-0.031428546
0.031428576
0.094285727
0.15714288
0.22
0.28285715
-0.094285697
-0.031428546
0.031428576
0.094285712
0.15714286
0.22000001
0.28285712
0.34571427
-0.031428576
0.031428576
0.094285712
0.15714285
0.22
0.28285715
0.34571427
0.40857142
0.031428576
0.094285727
0.15714286
0.22
0.28285715
0.3457143
0.40857142
0.47142857
0.094285727
0.15714288
0.22000001
0.28285715
0.3457143
0.40857145
0.47142857
0.53428572
0.15714285
0.22
0.28285712
0.34571427
0.40857142
0.47142857
0.53428566
0.59714282
0.22
0.28285715
0.34571427
0.40857142
0.47142857
0.53428572
0.59714282
0.65999997
SCALARS bias_indicator float 1
LOOKUP_TABLE default
0
0
0
0
0
0
0
0
0
0
0
0
0
0
0
0
0
0
0
0
0
0
0
0
0
0
0
0
0
0
0
0
0
0
0
0
0
0
0
0
0
0
0
0
0
0
0
0
0
0
0
0
0
0
0
0
0
0
0
0
0
0
0
0
0
0
0
0
0
0
0
0
0
0.019782394
0.0077630579
0.010968983
0.057315677
0.063684344
0.027574003
0
0
0.056214303
0.0032612383
0.0109483
0.03935504
0.04789038
0.0051170662
0
0
0.0029092133
0.0077945888
0.0043588877
0.052908838
0.02571331
0.00071936846
0
0
0.066579029
0.077545941
0.019742116
0.029464241
0.011998344
0.0086839348
0
0
0.021350294
0.055109605
0.066713713
0.0055198446
0.097619109
0.027030803
0
0
0.028061345
0.032184608
0.016885944
0.0028499607
0.1072786
0.0353598
0
0
0
0
0
0
0
0
0
0
0
0
0
0
0
0
0
0
0.033690572
0.022376984
0.0024867058
0.038188294
0.029568776
0.0035991911
0
0
0.014777273
0.028873861
0.072862178
0.0013268068
0.011000812
0.024414446
0
0
0.011925995
0.081946492
0.048433796
0.0069030672
0.0025513843
0.019590817
0
nan
0.00043363869
0.069302753
0.12531495
0.086031571
0.0040586144
0.058741912
0
0
0.030952066
0.1793299
0.041550469
0.045975275
0.014686059
0.067337878
0
0
0.041802958
0.040280193
0.065280929
0.023113869
0.096969023
0.066072017
0
0
0
0
0
0
0
0
0
0
0
0
0
0
0
0
0
0
0.042923361
0.035815835
0.034541011
0.0090025514
0.014008671
0.0093320832
0
0
0.013906151
0.053435907
0.0330185
0.097260073
0.047539867
0.039066553
0
0
0.02121304
0.062148079
0.062501043
0.027990367
0.030852072
0.031669751
0
0
0.028312042
0.059573501
0.11787732
0.066159919
0.052063093
0.016923621
0
0
0.0024675354
0.049752109
0.032930687
0.0189417
0.017127275
0.0066592693
0
0
0.051988862
0.16763595
0.040842418
0.15835834
0.036371335
0.021626145
0
0
0
0
0
0
0
0
0
0
0
0
0
0
0
0
0
0
0.0015747547
0.047785044
0.040411249
0.024514318
0.0059214728
0.021969963
0
0
0.043525055
0.024214014
0.036033779
0.012387061
0.01658039
0.019001752
0
0
0.033413649
0.010015205
0.043479845
0.019066727
0.093515575
0.002584964
0
0
0.044917017
0.0029701144
0.042992868
0.059991248
0.081515968
0.086647823
0
0
0.029079624
0.031391494
nan
nan
0.057878077
0.014707029
0
0
0.074339904
0.0096015781
0.064112276
0.0029170513
0.047335953
0.056672424
0
0
0
0
0
0
0
0
0
0
0
0
0
0
0
0
0
0
0.062781453
0.051658444
0.0034225136
0.0094602108
0.036333874
0.012401022
0
0
0.0073443055
0.023212872
0.043775365
0.0016028453
0.010084869
0.025315598
0
0
0.014154851
0.035337828
0.0019686129
0.027665697
0.0086489469
0.0019079149
0
0
0.022905599
0.067780472
0.063975029
0.17708641
0.017490178
0.0090166926
0
0
0.11410955
0.024821758
0.079328433
0.015819266
0.033050716
0.010164201
0
0
0.081787989
nan
0.04559359
0.020354748
0.019360363
0.011458516
0
0
0
0
0
0
0
0
0
0
0
0
0
0
0
0
0
0
0.021191031
0.01433906
0.071962595
0.024554536
0.016129047
0.043265536
0
0
0.032386795
0.04228007
0.0079326816
0.011428833
0.022572577
0.037809849
0
0
0.028224751
0.031295903
0.0109195
0.03955321
0.036477938
0.026347667
0
0
0.059463922
0.04928764
0.027624086
0.082703575
0.022456616
0.001065284
0
0
0.028469756
0.036044225
0.042794451
0.1078712
0.13503206
0.035562158
0
0
0.00036476552
0.011823386
0.026035696
0.01448825
0.022875965
0.020399183
0
0
0
0
0
0
0
0
0
0
0
0
0
0
0
0
0
0
0
0
0
0
0
0
0
0
0
0
0
0
0
0
0
0
0
0
0
0
0
0
0
0
0
0
0
0
0
0
0
0
0
0
0
0
0
0
0
0
0
0
0
0
0
0
0
0
0
0
0
0
0
0
0
SCALARS normalized_bias float 1
LOOKUP_TABLE default
0
0
0
0
0
0
0
0
0
0
0
0
0
0
0
0
0
0
0
0
0
0
0
0
0
0
0
0
0
0
0
0
0
0
0
0
0
0
0
0
0
0
0
0
0
0
0
0
0
0
0
0
0
0
0
0
0
0
0
0
0
0
0
0
0
0
0
0
0
0
0
0
0
0.52183348
0.26641372
0.16572611
1.3636951
0.84589905
0.48413309
0
0
0.92954469
0.070118733
0.33399782
0.43717006
0.65591842
0.087039918
0
0
0.06843812
0.067901202
0.069031172
0.53897589
0.23042019
0.009174847
0
0
1.1633884
1.0486647
0.25463143
0.2266304
0.16749018
0.099106364
0
0
0.32272705
0.81573766
0.79429513
0.12416413
0.93866152
0.30212077
0
0
0.53845018
0.59243256
0.26739281
0.048601031
1.2573341
0.64153177
0
0
0
0
0
0
0
0
0
0
0
0
0
0
0
0
0
0
0.76767933
0.28463492
0.030366205
0.57642645
0.35989568
0.037285563
0
0
0.17886969
0.4028191
0.89755327
0.011071962
0.098644614
0.26226839
0
0
0.1705713
0.59190315
0.55205381
0.069620073
0.024779264
0.23622301
0
nan
0.0040935352
0.99916416
1.2227837
0.6942901
0.043470204
0.58317202
0
0
0.73929369
1.937992
0.41871983
0.49357948
0.12204258
0.68394625
0
0
0.54442465
0.45439008
0.8866725
0.23346859
1.1342895
0.72786033
0
0
0
0
0
0
0
0
0
0
0
0
0
0
0
0
0
0
0.93693787
0.45375654
0.45759368
0.11266838
0.17866342
0.15947202
0
0
0.23384807
0.43574777
0.25746328
0.82768482
0.4240368
0.48853147
0
0
0.24044409
0.61587882
0.53993291
0.18929495
0.29146162
0.26715845
0
0
0.28024
0.46311793
1.0876721
0.50264853
0.42078537
0.14434686
0
0
0.031004068
0.48897317
0.42826173
0.15312541
0.25387305
0.088109784
0
0
0.47527716
1.5054406
0.37386942
1.3200332
0.45961967
0.2751154
0
0
0
0
0
0
0
0
0
0
0
0
0
0
0
0
0
0
0.04233202
0.88130927
0.36636487
0.25380635
0.056862865
0.31851432
0
0
0.77411121
0.27121538
0.36157531
0.08733625
0.17135395
0.28367433
0
0
0.60482496
0.10425318
0.45565587
0.16393049
0.59146273
0.027753528
0
0
0.40535489
0.023819303
0.37406507
0.39749196
0.71826792
0.90289712
0
0
0.29747868
0.31804359
nan
nan
0.5075804
0.17585973
0
0
1.034749
0.12208889
0.76047021
0.044467993
0.62226409
0.76499844
0
0
0
0
0
0
0
0
0
0
0
0
0
0
0
0
0
0
0.76049918
0.76092821
0.039854486
0.23638429
0.51006186
0.15636721
0
0
0.096984766
0.19448566
0.37409359
0.015334953
0.10545267
0.31642482
0
0
0.13022806
0.41447762
0.014711481
0.24171223
0.071831211
0.020763574
0
0
0.25095105
0.64560401
0.58738828
1.4764786
0.2212927
0.090099052
0
0
1.230796
0.23761052
0.69174194
0.10957983
0.28620937
0.11520725
0
0
1.0060427
nan
0.68621755
0.17904286
0.35210955
0.26737034
0
0
0
0
0
0
0
0
0
0
0
0
0
0
0
0
0
0
0.48588744
0.31370008
0.77068269
0.48175707
0.25640222
0.87528324
0
0
0.42764986
0.60143262
0.10636828
0.16127141
0.2846612
0.50246668
0
0
0.32390037
0.3687498
0.085556515
0.33676544
0.51040047
0.30768886
0
0
0.85011554
0.452371
0.41912881
0.89572859
0.3141022
0.010404206
0
0
0.41780367
0.47502944
0.44791734
1.6038417
1.8925335
0.34528166
0
0
0.0066674203
0.18551683
0.52791601
0.24793214
0.52266556
0.41950551
0
0
0
0
0
0
0
0
0
0
0
0
0
0
0
0
0
0
0
0
0
0
0
0
0
0
0
0
0
0
0
0
0
0
0
0
0
0
0
0
0
0
0
0
0
0
0
0
0
0
0
0
0
0
0
0
0
0
0
0
0
0
0
0
0
0
0
0
0
0
0
0
0
SCALARS std_error_epsilon float 1
LOOKUP_TABLE default
0
0
0
0
0
0
0
0
0
0
0
0
0
0
0
0
0
0
0
0
0
0
0
0
0
0
0
0
0
0
0
0
0
0
0
0
0
0
0
0
0
0
0
0
0
0
0
0
0
0
0
0
0
0
0
0
0
0
0
0
0
0
0
0
0
0
0
0
0
0
0
0
0
0.01673582
0.020343507
0.033795074
0.014201977
0.02922322
0.032823883
0
0
0.021107832
0.024099195
0.014337423
0.041989326
0.036775637
0.028213579
0
0
0.01731831
0.054846738
0.026796492
0.057161544
0.058425304
0.036487371
0
0
0.019711608
0.049077276
0.043795809
0.064952776
0.037742306
0.047226302
0
0
0.033117659
0.039950442
0.049902856
0.023966579
0.058721956
0.046956953
0
0
0.021234635
0.025545279
0.026272116
0.030514322
0.03776687
0.037020583
0
0
0
0
0
0
0
0
0
0
0
0
0
0
0
0
0
0
0.025971105
0.039714489
0.047130134
0.036920901
0.044198811
0.046846744
0
0
0.050569251
0.03678168
0.017497921
0.062411163
0.052255951
0.05091621
0
0
0.025360299
0.068515621
0.048521981
0.053630278
0.055126809
0.04998992
0
0
0.06121958
0.039413694
0.050533239
0.059746098
0.044331145
0.054570574
0
0
0.016775379
0.037014864
0.048590194
0.04597991
0.063319825
0.055917129
0
0
0.034185085
0.031578194
0.03981816
0.051271111
0.034599837
0.046423886
0
0
0
0
0
0
0
0
0
0
0
0
0
0
0
0
0
0
0.028589915
0.041229106
0.042338572
0.050087083
0.032562319
0.033273511
0
0
0.03666573
0.059992969
0.05824285
0.056177597
0.062269479
0.039259505
0
0
0.040989976
0.056525916
0.048706844
0.085313335
0.050686833
0.053540718
0
0
0.055318922
0.068987109
0.059942544
0.068126328
0.068729587
0.057766117
0
0
0.041594576
0.046030138
0.039253462
0.064545147
0.03398978
0.02905089
0
0
0.05694278
0.071221516
0.067437261
0.049442496
0.042414904
0.055277731
0
0
0
0
0
0
0
0
0
0
0
0
0
0
0
0
0
0
0.017823437
0.030447533
0.054114576
0.051858172
0.049717508
0.035093877
0
0
0.028484698
0.050008524
0.048954405
0.075456433
0.047867339
0.032646846
0
0
0.030534141
0.041625611
0.052693848
0.057712331
0.079374522
0.046292104
0
0
0.056643087
0.061868522
0.057387728
0.072936319
0.046550725
0.04705666
0
0
0.061476938
0.046793323
0
0
0.070159651
0.043267798
0
0
0.042256273
0.044692732
0.039932769
0.041981015
0.037097711
0.042021222
0
0
0
0
0
0
0
0
0
0
0
0
0
0
0
0
0
0
0.040042169
0.039441265
0.044289768
0.02315646
0.035770968
0.034084644
0
0
0.035508849
0.059842177
0.0613879
0.045273162
0.04782939
0.041681346
0
0
0.056547761
0.040411215
0.066598758
0.060500551
0.067122728
0.045945797
0
0
0.043874573
0.057998393
0.061945543
0.043436769
0.036892869
0.063200213
0
0
0.05384865
0.053601362
0.062134817
0.066059113
0.056709103
0.046791721
0
0
0.04493491
0
0.040158682
0.059172887
0.032732766
0.028286403
0
0
0
0
0
0
0
0
0
0
0
0
0
0
0
0
0
0
0.018129248
0.022512063
0.054337256
0.02402975
0.031532045
0.030790383
0
0
0.043682754
0.02433354
0.036558725
0.036803387
0.040895596
0.038666986
0
0
0.044285312
0.040160447
0.060514059
0.060811922
0.035432279
0.03883018
0
0
0.040152639
0.056160394
0.027887182
0.034602512
0.04345528
0.051380828
0
0
0.041830968
0.046563711
0.054203749
0.024404226
0.021583054
0.057326566
0
0
0.026719507
0.035886914
0.026083671
0.030881535
0.026647104
0.021999048
0
0
0
0
0
0
0
0
0
0
0
0
0
0
0
0
0
0
0
0
0
0
0
0
0
0
0
0
0
0
0
0
0
0
0
0
0
0
0
0
0
0
0
0
0
0
0
0
0
0
0
0
0
0
0
0
0
0
0
0
0
0
0
0
0
0
0
0
0
0
0
0
0
SCALARS std_error_epsilon_half float 1
LOOKUP_TABLE default
0
0
0
0
0
0
0
0
0
0
0
0
0
0
0
0
0
0
0
0
0
0
0
0
0
0
0
0
0
0
0
0
0
0
0
0
0
0
0
0
0
0
0
0
0
0
0
0
0
0
0
0
0
0
0
0
0
0
0
0
0
0
0
0
0
0
0
0
0
0
0
0
0
0.021172581
0.0087946001
0.032391347
0.027826712
0.046061765
0.024130536
0
0
0.039366268
0.022410037
0.018441135
0.048031941
0.03623607
0.0305753
0
0
0.025189359
0.059945352
0.036346268
0.041002963
0.053166829
0.041918214
0
0
0.037515942
0.024869043
0.033735316
0.065056324
0.033892799
0.04039507
0
0
0.03303723
0.02760656
0.034087233
0.020488458
0.045275249
0.042512245
0
0
0.030879393
0.028779922
0.036877207
0.028124601
0.0475544
0.018096186
0
0
0
0
0
0
0
0
0
0
0
0
0
0
0
0
0
0
0.017914152
0.038900953
0.034759432
0.029328167
0.03795949
0.049682677
0
0
0.032044485
0.034896791
0.063679747
0.057422679
0.059262693
0.042172335
0
0
0.044556648
0.069929168
0.039210856
0.045522127
0.047836687
0.032942649
0
0
0.044711992
0.029946033
0.051949099
0.064165905
0.049033284
0.046156697
0
0
0.0250907
0.055518009
0.050640956
0.047165744
0.057014707
0.042536803
0
0
0.042597644
0.057067532
0.033805471
0.047729939
0.050887946
0.044350799
0
0
0
0
0
0
0
0
0
0
0
0
0
0
0
0
0
0
0.017221473
0.037701726
0.033144448
0.029815009
0.045844845
0.025244119
0
0
0.022799877
0.062636398
0.070001625
0.061329987
0.049842115
0.040706821
0
0
0.047233444
0.044382676
0.067049213
0.062552094
0.055165116
0.065001234
0
0
0.045707926
0.059647601
0.048432242
0.063495301
0.054997794
0.059475616
0
0
0.037991904
0.055717003
0.03763938
0.059154432
0.033473156
0.046527337
0
0
0.05244264
0.040130898
0.041804206
0.070521928
0.036717646
0.023328809
0
0
0
0
0
0
0
0
0
0
0
0
0
0
0
0
0
0
0.019375652
0.023771985
0.056187712
0.044727527
0.054417521
0.0338815
0
0
0.027740147
0.039270129
0.050702345
0.066374414
0.048892729
0.034336548
0
0
0.024710013
0.054439567
0.042727709
0.058596499
0.078733474
0.046846911
0
0
0.054165028
0.06282407
0.057545472
0.07798712
0.066937916
0.048908781
0
0
0.036275711
0.051907547
0
0
0.043866757
0.040360518
0
0
0.029586144
0.033950429
0.044372331
0.023616886
0.038971808
0.032059532
0
0
0
0
0
0
0
0
0
0
0
0
0
0
0
0
0
0
0.042509791
0.028446462
0.041584481
0.016863015
0.035462283
0.045221403
0
0
0.040216535
0.059512012
0.055628251
0.059248183
0.047803693
0.038322747
0
0
0.052144032
0.044846501
0.067214981
0.053955618
0.053282794
0.045940802
0
0
0.047399595
0.046988297
0.046967834
0.076500595
0.042142529
0.036874127
0
0
0.038862344
0.05086169
0.05254342
0.07830283
0.058767304
0.041432645
0
0
0.036360826
0
0.026282206
0.054512575
0.022250159
0.014568945
0
0
0
0
0
0
0
0
0
0
0
0
0
0
0
0
0
0
0.025482798
0.023196394
0.039036874
0.02693796
0.031372212
0.018638942
0
0
0.032048281
0.045964394
0.038017791
0.034062687
0.0383997
0.036580488
0
0
0.042853914
0.044708844
0.067114025
0.05663741
0.036035974
0.046799704
0
0
0.02979441
0.052792627
0.038020164
0.05772756
0.028038338
0.051007919
0
0
0.026309503
0.029313162
0.041336209
0.042852789
0.049765836
0.045667063
0
0
0.027988141
0.027844232
0.023233209
0.027553819
0.017119778
0.026626691
0
0
0
0
0
0
0
0
0
0
0
0
0
0
0
0
0
0
0
0
0
0
0
0
0
0
0
0
0
0
0
0
0
0
0
0
0
0
0
0
0
0
0
0
0
0
0
0
0
0
0
0
0
0
0
0
0
0
0
0
0
0
0
0
0
0
0
0
0
0
0
0
0
SCALARS mean_steps_epsilon float 1
LOOKUP_TABLE default
1
1
1
1
1
1
1
1
1
1
1
1
1
1
1
1
1
1
1
1
1
1
1
1
1
1
1
1
1
1
1
1
1
1
1
1
1
1
1
1
1
1
1
1
1
1
1
1
1
1
1
1
1
1
1
1
1
1
1
1
1
1
1
1
1
1
1
1
1
1
1
1
1
11.0625
10.5
14.0625
11.25
22.4375
10.5
1
1
12.25
17.8125
12.4375
15.125
19.25
15.1875
1
1
16.0625
22.3125
18.375
20.4375
21.75
13.6875
1
1
14.8125
13.375
14.6875
26.375
14.0625
10.75
1
1
16.125
18.375
18.375
16.5
15.6875
16.5
1
1
13.5625
13
21.25
12.3125
19.0625
18.9375
1
1
1
1
1
1
1
1
1
1
1
1
1
1
1
1
1
1
17.125
12.4375
20.0625
25.6875
14.0625
18.25
1
1
18.5
18.4375
16.5625
20.375
21.3125
15.6875
1
1
16.9375
25.5625
21
25.5
18.75
20.5
1
0
21.375
21.75
36.625
25.1875
25.1875
15.25
1
1
19.5625
27.5
24.1875
23.3125
28.1875
19.6875
1
1
20.5625
22.6875
15.5625
24.1875
16.25
17.1875
1
1
1
1
1
1
1
1
1
1
1
1
1
1
1
1
1
1
16.0625
15.75
25.5
14.8125
11
15.625
1
1
20.4375
17.125
18.6875
21.0625
21.875
18.875
1
1
24.3125
19.75
24.9375
27.8125
24
22.1875
1
1
19
28.3125
27.5625
26.625
26.25
29.0625
1
1
23.25
37.375
25.9375
36.5625
15.8125
16.25
1
1
24.5
29.1875
26
26.5
23.625
15.5625
1
1
1
1
1
1
1
1
1
1
1
1
1
1
1
1
1
1
13.4375
19.9375
17.25
13.9375
18.625
14.0625
1
1
14.375
27.125
23.875
17.875
15.8125
17.5
1
1
20.75
20.6875
24.6875
29.4375
18.625
15.625
1
1
29.9375
34.875
27.5
30.625
18.3125
21.125
1
1
25.5625
29
0
0
28.6875
16.0625
1
1
18
23.125
22.5
22.25
16.3125
13.375
1
1
1
1
1
1
1
1
1
1
1
1
1
1
1
1
1
1
14.25
14.375
15.3125
14.875
14.375
10.1875
1
1
14.0625
15.0625
16.75
24.5625
14.5
14.8125
1
1
13.375
19.3125
20.75
19.5625
20.6875
22.625
1
1
18.375
22.9375
25
22.375
17.3125
24.1875
1
1
21.375
23.5
25.4375
26.125
24.875
15.125
1
1
18.0625
0
19.375
23.75
19.125
16.9375
1
1
1
1
1
1
1
1
1
1
1
1
1
1
1
1
1
1
11.1875
9.5625
16.375
14.9375
17.4375
16.1875
1
1
13.5
11.625
12.1875
13.625
21.8125
14.3125
1
1
18.375
17.0625
24.25
17.375
14.125
14.375
1
1
24.625
17.1875
16.8125
18.5
19.6875
13.3125
1
1
18.5625
15.375
18.3125
20.125
11.9375
15.75
1
1
15.8125
13.75
11
17.375
13.3125
9.25
1
1
1
1
1
1
1
1
1
1
1
1
1
1
1
1
1
1
1
1
1
1
1
1
1
1
1
1
1
1
1
1
1
1
1
1
1
1
1
1
1
1
1
1
1
1
1
1
1
1
1
1
1
1
1
1
1
1
1
1
1
1
1
1
1
1
1
1
1
1
1
1
1
SCALARS mean_steps_epsilon_half float 1
LOOKUP_TABLE default
1
1
1
1
1
1
1
1
1
1
1
1
1
1
1
1
1
1
1
1
1
1
1
1
1
1
1
1
1
1
1
1
1
1
1
1
1
1
1
1
1
1
1
1
1
1
1
1
1
1
1
1
1
1
1
1
1
1
1
1
1
1
1
1
1
1
1
1
1
1
1
1
1
13.125
12.1875
14.9375
13.375
24.25
14.8125
1
1
16.6875
19.6875
20.4375
18.375
19.6875
18.3125
1
1
16
28.6875
16.125
18.5
27.375
17.125
1
1
31.0625
16.9375
15
25.375
15.9375
11.1875
1
1
15.125
22.875
24.25
10.9375
26.9375
25.125
1
1
13.9375
13.25
21.75
15.125
23.375
19.5625
1
1
1
1
1
1
1
1
1
1
1
1
1
1
1
1
1
1
17.6875
15.5625
20.75
17.8125
19.375
23.0625
1
1
19.6875
20.6875
29.3125
20.375
19.625
14.375
1
1
26.3125
25.875
21.375
19.6875
19.5625
20.4375
1
0
28.375
25.5625
24.6875
30.5
27.75
20.1875
1
1
34.4375
43.8125
34.6875
36.875
35.8125
19
1
1
26.6875
24.375
18.6875
34.75
30.25
20.25
1
1
1
1
1
1
1
1
1
1
1
1
1
1
1
1
1
1
16.75
17.4375
26
20.875
14.875
17.25
1
1
19.75
23.875
25.5
42.25
20.9375
22.875
1
1
23.0625
30.875
32.0625
39.125
26.8125
29.9375
1
1
19.5625
58.1875
52.3125
39.5625
28.3125
28.3125
1
1
34.6875
50.5
46.5
42.8125
17.0625
19.375
1
1
30.4375
34.4375
39.125
46.3125
24.875
19.5625
1
1
1
1
1
1
1
1
1
1
1
1
1
1
1
1
1
1
17.4375
19.1875
22.8125
18.5
20.3125
17.5
1
1
15.8125
22.0625
29.4375
24.875
14.875
18.625
1
1
28.8125
39.4375
28.6875
41.0625
24.375
17.5625
1
1
33
34.5625
49.875
48.8125
53.75
23.875
1
1
16.375
48.5625
0
0
30.75
21.1875
1
1
26.4375
31.9375
33.25
26.6875
23.375
21.625
1
1
1
1
1
1
1
1
1
1
1
1
1
1
1
1
1
1
19.25
17.5
15.5
18.8125
15.25
14.6875
1
1
17.125
18.125
14.4375
26.125
14.4375
20.4375
1
1
14
25.625
20.8125
21.5
28.5625
21
1
1
35.125
33.8125
32.25
33.9375
19.8125
25.25
1
1
23.75
26.625
49.375
53.1875
32.5625
16.125
1
1
22.4375
0
20.0625
27.8125
27.625
19.0625
1
1
1
1
1
1
1
1
1
1
1
1
1
1
1
1
1
1
11.1875
14.75
18.3125
16.75
18.375
16.3125
1
1
17.25
18.4375
13.125
14.5
23.3125
15.875
1
1
11.4375
25.375
26.5
18.625
19.6875
17.875
1
1
20.4375
23.125
23.9375
21.25
18.3125
15.3125
1
1
16.375
15.75
17.875
31.1875
24.1875
13.8125
1
1
20.375
24.1875
17.25
17.875
19.1875
14.25
1
1
1
1
1
1
1
1
1
1
1
1
1
1
1
1
1
1
1
1
1
1
1
1
1
1
1
1
1
1
1
1
1
1
1
1
1
1
1
1
1
1
1
1
1
1
1
1
1
1
1
1
1
1
1
1
1
1
1
1
1
1
1
1
1
1
1
1
1
1
1
1
1
SCALARS exact float 1
LOOKUP_TABLE default
-0.65999997
-0.59714282
-0.53428566
-0.47142857
-0.40857142
-0.34571427
-0.28285715
-0.22
-0.59714282
-0.53428566
-0.47142854
-0.40857142
-0.34571427
-0.28285712
-0.22
-0.15714285
-0.53428566
-0.47142854
-0.40857142
-0.34571427
-0.28285712
-0.21999998
-0.15714286
-0.094285712
-0.47142857
-0.40857142
-0.34571427
-0.28285715
-0.22
-0.15714285
-0.094285727
-0.031428576
-0.40857142
-0.34571427
-0.28285712
-0.22
-0.15714285
-0.094285697
-0.031428576
0.031428576
-0.34571427
-0.28285712
-0.21999998
-0.15714285
-0.094285697
-0.031428546
0.031428576
0.094285727
-0.28285715
-0.22
-0.15714286
-0.094285727
-0.031428576
0.031428576
0.094285697
0.15714285
-0.22
-0.15714285
-0.094285712
-0.031428576
0.031428576
0.094285727
0.15714285
0.22
-0.59714282
-0.53428566
-0.47142854
-0.40857142
-0.34571427
-0.28285712
-0.22
-0.15714285
-0.53428566
-0.47142854
-0.40857139
-0.34571427
-0.28285712
-0.21999997
-0.15714285
-0.094285697
-0.47142854
-0.40857139
-0.34571427
-0.28285712
-0.21999998
-0.15714283
-0.094285712
-0.031428561
-0.40857142
-0.34571427
-0.28285712
-0.22
-0.15714285
-0.094285697