# vtk DataFile Version 3.0
WoSt Poisson solution ã?structured grid
ASCII
DATASET STRUCTURED_POINTS
DIMENSIONS 16 16 16
ORIGIN -1.1 -1.1 -1.1
SPACING 0.14666668 0.14666668 0.14666668
POINT_DATA 4096
SCALARS solution float 1
LOOKUP_TABLE default
-3.3000002
-3.1533332
-3.0066667
-2.8600001
-2.7133334
-2.5666666
-2.4200001
-2.2733333
-2.1266665
-1.98
-1.8333334
-1.6866666
-1.54
-1.3933333
-1.2466666
-1.1
-3.1533332
-3.0066667
-2.8600001
-2.7133334
-2.5666666
-2.4200001
-2.2733335
-2.1266665
-1.98
-1.8333334
-1.6866667
-1.54
-1.3933333
-1.2466667
-1.0999999
-0.95333338
-3.0066667
-2.8600001
-2.7133334
-2.5666666
-2.4200001
-2.2733335
-2.1266665
-1.98
-1.8333333
-1.6866667
-1.54
-1.3933332
-1.2466667
-1.0999999
-0.9533332
-0.80666667
-2.8600001
-2.7133334
-2.5666666
-2.4200001
-2.2733333
-2.1266665
-1.98
-1.8333333
-1.6866666
-1.54
-1.3933333
-1.2466666
-1.0999999
-0.95333326
-0.80666649
-0.65999997
-2.7133334
-2.5666666
-2.4200001
-2.2733333
-2.1266665
-1.98
-1.8333333
-1.6866666
-1.54
-1.3933333
-1.2466667
-1.0999999
-0.95333326
-0.80666661
-0.65999985
-0.51333332
-2.5666666
-2.4200001
-2.2733335
-2.1266665
-1.98
-1.8333334
-1.6866667
-1.54
-1.3933333
-1.2466667
-1.1
-0.95333326
-0.80666661
-0.65999997
-0.5133332
-0.36666667
-2.4200001
-2.2733335
-2.1266665
-1.98
-1.8333333
-1.6866667
-1.54
-1.3933332
-1.2466667
-1.0999999
-0.95333332
-0.80666655
-0.65999991
-0.51333326
-0.3666665
-0.21999997
-2.2733333
-2.1266665
-1.98
-1.8333333
-1.6866666
-1.54
-1.3933332
-1.2466666
-1.0999999
-0.95333326
-0.80666661
-0.65999985
-0.5133332
-0.36666656
-0.21999979
-0.073333263
-2.1266665
-1.98
-1.8333333
-1.6866666
-1.54
-1.3933333
-1.2466667
-1.0999999
-0.95333326
-0.80666661
-0.65999997
-0.5133332
-0.36666656
-0.21999991
-0.073333144
0.073333383
-1.98
-1.8333334
-1.6866667
-1.54
-1.3933333
-1.2466667
-1.0999999
-0.95333326
-0.80666661
-0.65999997
-0.51333332
-0.36666656
-0.21999991
-0.073333263
0.073333502
0.22000003
-1.8333334
-1.6866667
-1.54
-1.3933333
-1.2466667
-1.1
-0.95333332
-0.80666661
-0.65999997
-0.51333332
-0.36666667
-0.21999991
-0.073333263
0.073333383
0.22000015
0.36666667
-1.6866666
-1.54
-1.3933332
-1.2466666
-1.0999999
-0.95333326
-0.80666655
-0.65999985
-0.5133332
-0.36666656
-0.21999991
-0.073333144
0.073333502
0.22000015
0.36666691
0.51333344
-1.54
-1.3933333
-1.2466667
-1.0999999
-0.95333326
-0.80666661
-0.65999991
-0.5133332
-0.36666656
-0.21999991
-0.073333263
0.073333502
0.22000015
0.36666679
0.51333356
0.66000009
-1.3933333
-1.2466667
-1.0999999
-0.95333326
-0.80666661
-0.65999997
-0.51333326
-0.36666656
-0.21999991
-0.073333263
0.073333383
0.22000015
0.36666679
0.51333344
0.66000021
0.80666673
-1.2466666
-1.0999999
-0.9533332
-0.80666649
-0.65999985
-0.5133332
-0.3666665
-0.21999979
-0.073333144
0.073333502
0.22000015
0.36666691
0.51333356
0.66000021
0.80666697
0.9533335
-1.1
-0.95333338
-0.80666667
-0.65999997
-0.51333332
-0.36666667
-0.21999997
-0.073333263
0.073333383
0.22000003
0.36666667
0.51333344
0.66000009
0.80666673
0.9533335
1.1
-3.1533334
-3.0066667
-2.8600001
-2.7133334
-2.5666666
-2.4200001
-2.2733333
-2.1266665
-1.98
-1.8333334
-1.6866667
-1.54
-1.3933333
-1.2466667
-1.0999999
-0.95333338
-3.0066667
-2.8553152
-2.7383728
-2.5711296
-2.4562049
-2.2880576
-2.1315341
-1.9676305
-1.8317198
-1.6577898
-1.5237296
-1.3788583
-1.2090966
-1.0594777
-0.96895313
-0.80666673
-2.8600001
-2.6999552
-2.5962543
-2.4746625
-2.2712767
-2.1569138
-2.0035954
-1.8294855
-1.7107871
-1.5076126
-1.4171362
-1.2769997
-1.1234971
-0.96952182
-0.84352678
-0.66000003
-2.7133334
-2.6104815
-2.4219589
-2.2630422
-2.1123297
-1.94292
-1.8058453
-1.6546948
-1.5579321
-1.4083351
-1.1727568
-1.1184818
-0.8903318
-0.78688282
-0.61894524
-0.51333332
-2.5666666
-2.4582248
-2.2374341
-2.1145394
-1.9812617
-1.8238741
-1.6930168
-1.5199978
-1.3284935
-1.2176682
-1.0864494
-0.93697017
-0.81857228
-0.68222028
-0.54816037
-0.36666667
-2.4200001
-2.2456412
-2.1225636
-1.933907
-1.8306981
-1.70549
-1.5199395
-1.3760549
-1.2752122
-1.0615079
-0.94277894
-0.77658856
-0.64518386
-0.50942236
-0.3360211
-0.22000003
-2.2733333
-2.1176066
-1.9933982
-1.7570744
-1.6853791
-1.5579014
-1.3980287
-1.2159425
-1.0652887
-0.98468751
-0.73103786
-0.6241852
-0.59544021
-0.38895684
-0.27526718
-0.073333323
-2.1266665
-1.9608169
-1.8541481
-1.7224481
-1.5658609
-1.396119
-1.2790409
-1.1352991
-0.90822619
-0.81701344
-0.64643478
-0.4799031
-0.39596227
-0.24899533
-0.035422668
0.073333383
-1.98
-1.8625903
-1.6570791
-1.5492605
-1.4153876
-1.234394
-1.1034403
-0.93468088
-0.79003733
-0.644454
-0.53791445
-0.28625399
-0.22848341
-0.06627509
0.085121423
0.22000003
-1.8333334
-1.7093414
-1.5355155
-1.3914821
-1.1991373
-1.090083
-0.96611631
-0.81286359
-0.69061953
-0.50247043
-0.41239786
-0.16286217
-0.04723312
0.07723964
0.25321436
0.36666667
-1.6866667
-1.5124292
-1.3939862
-1.2543048
-1.1394197
-0.98772681
-0.84186673
-0.68476903
-0.47642943
-0.32543734
-0.19482501
-0.10196281
0.10559348
0.24977978
0.41127804
0.51333332
-1.54
-1.378431
-1.2728217
-1.1119939
-0.97058308
-0.81928265
-0.6483885
-0.52251774
-0.39867523
-0.20885892
-0.046046671
0.050167575
0.25246692
0.36214602
0.52425677
0.66000009
-1.3933333
-1.2305782
-1.1352893
-0.96246982
-0.82373351
-0.63597262
-0.54377085
-0.41329378
-0.22089538
-0.078441702
0.055237889
0.20306511
0.39150643
0.52039492
0.68433344
0.80666673
-1.2466667
-1.1267656
-0.98207963
-0.80711836
-0.65327895
-0.47390765
-0.31742269
-0.17864916
-0.11546008
0.067654304
0.25395074
0.34592974
0.54624552
0.65597409
0.82132417
0.95333338
-1.0999999
-0.96831375
-0.80992073
-0.63589406
-0.54319996
-0.3804746
-0.2424788
-0.064938545
0.042129427
0.23354693
0.37994641
0.49420717
0.64644402
0.8491987
0.95299792
1.1000001
-0.95333338
-0.80666673
-0.66000003
-0.51333332
-0.36666667
-0.22000003
-0.073333323
0.073333383
0.22000003
0.36666667
0.51333332
0.66000009
0.80666673
0.95333338
1.1000001
1.2466667
-3.0066667
-2.8599999
-2.7133334
-2.5666666
-2.4200001
-2.2733333
-2.1266665
-1.98
-1.8333333
-1.6866667
-1.54
-1.3933332
-1.2466667
-1.0999999
-0.9533332
-0.80666667
-2.8599999
-2.7008419
-2.6054533
-2.4324875
-2.2818096
-2.1142879
-1.9889143
-1.8012075
-1.7032909
-1.6006252
-1.3731012
-1.23342
-1.077142
-1.0100076
-0.80193824
-0.66000003
-2.7133334
-2.5676217
-2.4078364
-2.281811
-2.1181235
-2.0113068
-1.8576237
-1.6390865
-1.5259445
-1.3522986
-1.196265
-1.1615484
-0.94851321
-0.82995188
-0.62448257
-0.51333332
-2.5666666
-2.4270463
-2.2735257
-2.1372151
-1.9053856
-1.8124977
-1.7061464
-1.4975905
-1.468581
-1.2911559
-1.0409383
-0.94712567
-0.75576627
-0.68293601
-0.48903754
-0.36666662
-2.4200001
-2.2610424
-2.1197517
-2.0541012
-1.8286283
-1.6336498
-1.5048721
-1.3074796
-1.2155232
-1.1425327
-0.94471037
-0.84432673
-0.72446805
-0.51191568
-0.35229409
-0.21999997
-2.2733333
-2.1707232
-1.962242
-1.8451006
-1.6672825
-1.5378642
-1.4099921
-1.3100134
-1.1576059
-0.97783172
-0.80403256
-0.67947751
-0.49595511
-0.37149963
-0.22037134
-0.073333323
-2.1266665
-1.9539818
-1.7831805
-1.7228277
-1.5276749
-1.405163
-1.2965937
-1.0372602
-0.9472909
-0.68647844
-0.62264609
-0.55687827
-0.38232315
-0.19419658
-0.10620508
0.073333383
-1.98
-1.8849835
-1.6057603
-1.5255797
-1.3867296
-1.1610354
-1.1369866
-0.96693373
-0.74506092
-0.62927985
-0.57575095
-0.36582142
-0.25875497
-0.046274107
0.1075875
0.22000009
-1.8333333
-1.6762531
-1.6043208
-1.3406625
-1.2810879
-1.1502746
-1.0406944
-0.82506901
-0.6726684
-0.61344272
-0.41546875
-0.20353706
-0.028141465
0.063474141
0.19091383
0.36666673
-1.6866667
-1.5405051
-1.4258692
-1.2597036
-1.0754137
-0.96153474
-0.83147979
-0.62977737
-0.50244159
-0.39014527
-0.22257131
-0.14586379
0.04649524
0.23307087
0.40794465
0.51333338
-1.54
-1.3777424
-1.230263
-1.1236377
-0.94511008
-0.80103993
-0.63883525
-0.52932662
-0.41077018
-0.24970289
-0.030661004
0.072614133
0.2103411
0.33979249
0.49515831
0.66000003
-1.3933332
-1.275822
-1.0893857
-1.0096453
-0.75443131
-0.70370686
-0.4643127
-0.31019172
-0.24926227
-0.039686535
0.06286592
0.24703389
0.33098233
0.51466054
0.67180079
0.80666679
-1.2466667
-1.1220129
-0.9463377
-0.7744258
-0.59061658
-0.49355632
-0.40001699
-0.23675419
-0.13958834
0.089325137
0.21944048
0.36551717
0.54520929
0.70156515
0.8077004
0.95333344
-1.0999999
-1.0000958
-0.80121028
-0.6692363
-0.51050472
-0.35409036
-0.25029209
-0.084849872
0.063019939
0.21829332
0.36695129
0.52020323
0.62595695
0.81646389
0.93578833
1.1000001
-0.9533332
-0.78386402
-0.64687908
-0.52651215
-0.38372323
-0.24916226
-0.10453982
0.085425362
0.21346752
0.363363
0.53050959
0.69149882
0.79994428
0.91748434
1.0943106
1.2466669
-0.80666667
-0.66000003
-0.51333332
-0.36666662
-0.21999997
-0.073333323
0.073333383
0.22000009
0.36666673
0.51333338
0.66000003
0.80666679
0.95333344
1.1000001
1.2466669
1.3933334
-2.8600001
-2.7133331
-2.5666666
-2.4200001
-2.2733333
-2.1266665
-1.9799999
-1.8333333
-1.6866666
-1.54
-1.3933333
-1.2466666
-1.0999999
-0.95333326
-0.80666649
-0.65999997
-2.7133331
-2.5722859
-2.3651273
-2.2899923
-2.1037571
-2.0206406
-1.8755937
-1.6868292
-1.5495458
-1.3880919
-1.290907
-1.1264839
-0.95815492
-0.78118938
-0.64624876
-0.51333332
-2.5666666
-2.4439254
-2.3026271
-2.133745
-1.9670906
-1.8023399
-1.7383178
-1.5461147
-1.2972214
-1.3083692
-1.08635
-0.89714426
-0.77746785
-0.69142371
-0.50610131
-0.36666662
-2.4200001
-2.308948
-2.143023
-2.0072651
-1.7848591
-1.6291078
-1.4922215
-1.3722286
-1.2637999
-1.0966246
-0.96651161
-0.8222757
-0.69881463
-0.52195883
-0.35765192
-0.21999991
-2.2733333
-2.1414788
-2.0297048
-1.9264436
-1.6692609
-1.4742354
-1.3895961
-1.3107101
-1.1184797
-0.93567973
-0.78051788
-0.65480471
-0.4291552
-0.29514566
-0.19694208
-0.073333263
-2.1266665
-1.9800116
-1.7975928
-1.7163374
-1.5424286
-1.3609402
-1.208293
-1.1314296
-0.96978468
-0.75345516
-0.63992721
-0.53560615
-0.31355017
-0.20433058
-0.025259249
0.073333383
-1.9799999
-1.8438689
-1.6950117
-1.5856539
-1.3455632
-1.2384804
-1.1633316
-0.98213589
-0.82995653
-0.60957575
-0.58217132
-0.30416334
-0.12880604
-0.023026101
0.033875033
0.22000009
-1.8333333
-1.6538401
-1.6103876
-1.339572
-1.2726208
-1.121576
-0.86095649
-0.78981447
-0.715478
-0.53648734
-0.43493143
-0.16740264
-0.053897701
0.043038882
0.25798735
0.36666679
-1.6866666
-1.5049186
-1.3847253
-1.245738
-1.0818291
-0.96215862
-0.85584629
-0.67696345
-0.49560681
-0.37517795
-0.26912978
-0.071476884
0.075620793
0.24463215
0.3573496
0.51333344
-1.54
-1.3868504
-1.2638811
-1.0840921
-1.0115956
-0.84843922
-0.64626676
-0.5145337
-0.35806042
-0.17491919
-0.083073117
0.15422642
0.24071716
0.31870243
0.50814772
0.66000009
-1.3933333
-1.2838143
-1.0324214
-0.93092531
-0.79540312
-0.70123971
-0.53428942
-0.38634792
-0.21619284
-0.072007753
0.058766998
0.25386715
0.44034061
0.53457886
0.70366496
0.80666673
-1.2466666
-1.1317161
-0.91835791
-0.83170092
-0.65412372
-0.51791584
-0.37621045
-0.24890588
-0.076881275
0.048358735
0.15603615
0.39386353
0.4303228
0.68720287
0.81732231
0.9533335
-1.0999999
-0.99363619
-0.77524155
-0.69751453
-0.54833698
-0.36669233
-0.22880512
-0.084431104
0.05383902
0.17541172
0.33395985
0.46412513
0.65168709
0.76509196
0.93897259
1.1000001
-0.95333326
-0.85127932
-0.69539273
-0.44812295
-0.38846898
-0.2821773
-0.07221771
0.032910049
0.27651513
0.35885203
0.50410515
0.66776127
0.79079401
0.97556496
1.0770094
1.2466668
-0.80666649
-0.65288419
-0.51418096
-0.35556713
-0.22839403
-0.13219137
0.086753443
0.21946104
0.31314588
0.46964577
0.65408444
0.7894569
0.90956914
1.0960501
1.2441756
1.3933336
-0.65999997
-0.51333332
-0.36666662
-0.21999991
-0.073333263
0.073333383
0.22000009
0.36666679
0.51333344
0.66000009
0.80666673
0.9533335
1.1000001
1.2466668
1.3933336
1.5400001
-2.7133334
-2.5666666
-2.4200001
-2.2733333
-2.1266665
-1.98
-1.8333333
-1.6866666
-1.54
-1.3933333
-1.2466667
-1.0999999
-0.95333326
-0.80666661
-0.65999985
-0.51333332
-2.5666666
-2.4397819
-2.3176873
-2.1338193
-1.9435505
-1.8422686
-1.685832
-1.5713152
-1.400462
-1.2493174
-1.0566964
-0.92004466
-0.74272543
-0.70551842
-0.45352763
-0.36666667
-2.4200001
-2.3252711
-2.134563
-2.0077918
-1.75404
-1.7022433
-1.5879285
-1.37093
-1.1945885
-1.1003268
-0.98700482
-0.85982358
-0.64383173
-0.55353558
-0.36522883
-0.21999997
-2.2733333
-2.1850643
-1.9328146
-1.737939
-1.6759087
-1.5923299
-1.3428133
-1.1993697
-1.1368934
-0.91576856
-0.79265118
-0.66956413
-0.51964164
-0.35737196
-0.20973293
-0.073333263
-2.1266665
-2.015815
-1.8790522
-1.7359381
-1.5763161
-1.3124313
-1.3103189
-1.0727142
-0.95083958
-0.81654209
-0.68518144
-0.51201969
-0.39285573
-0.1791946
-0.073996931
0.073333383
-1.98
-1.7878604
-1.6058799
-1.5241945
-1.3672696
-1.3161439
-1.1294367
-0.9778707
-0.86280733
-0.67353302
-0.48849779
-0.3301008
-0.28381252
-0.086862281
0.10113831
0.22000003
-1.8333333
-1.7140224
-1.5591449
-1.363447
-1.2275497
-1.1790732
-0.99062681
-0.79440176
-0.66116214
-0.51331437
-0.37182835
-0.23826417
-0.019778769
0.13714246
0.22445591
0.36666673
-1.6866666
-1.5205233
-1.3075975
-1.2882923
-1.1081154
-0.91184354
-0.76587045
-0.70939636
-0.53393435
-0.34224465
-0.22233589
-0.034700237
0.090465866
0.24912001
0.35079247
0.51333344
-1.54
-1.4454026
-1.3426341
-1.0882083
-0.99699074
-0.85065311
-0.63578916
-0.55418259
-0.39274478
-0.25774235
-0.16962875
0.027385239
0.20030916
0.37314665
0.47483701
0.66000009
-1.3933333
-1.2758199
-1.161021
-0.93217939
-0.86050385
-0.63968927
nan
nan
nan
nan
0.026424157
0.14118528
0.35355565
0.49562085
0.68910813
0.80666673
-1.2466667
-1.1239821
-0.95233798
-0.81016165
-0.70600367
-0.54650038
nan
nan
nan
nan
0.19174141
0.35661474
0.44694519
0.68052024
0.79500139
0.95333338
-1.0999999
-0.9898231
-0.82583326
-0.60401309
-0.53479868
-0.35699946
nan
nan
nan
nan
0.37795645
0.50116724
0.67962682
0.83534938
1.0276216
1.1000001
-0.95333326
-0.85236049
-0.63561553
-0.54442048
-0.35611656
-0.21936686
-0.054734968
0.059472058
0.22402722
0.36837164
0.48197779
0.65424126
0.79556286
0.97226346
1.1019163
1.2466668
-0.80666661
-0.66109759
-0.521927
-0.3963041
-0.18432827
-0.013299714
0.10490266
0.22260894
0.35181302
0.52832413
0.68843842
0.8229782
0.98262846
1.0865455
1.2544045
1.3933334
-0.65999985
-0.51627946
-0.36389512
-0.15733762
-0.10243116
0.10929111
0.20202
0.3694751
0.50021976
0.65459806
0.79716659
0.98800594
1.1054674
1.2933716
1.3999418
1.5400002
-0.51333332
-0.36666667
-0.21999997
-0.073333263
0.073333383
0.22000003
0.36666673
0.51333344
0.66000009
0.80666673
0.95333338
1.1000001
1.2466668
1.3933334
1.5400002
1.6866667
-2.5666666
-2.4200001
-2.2733335
-2.1266665
-1.98
-1.8333334
-1.6866666
-1.54
-1.3933333
-1.2466667
-1.1
-0.95333326
-0.80666661
-0.65999997
-0.5133332
-0.36666667
-2.4200001
-2.2895074
-2.089159
-2.0147991
-1.8886071
-1.6840489
-1.5548031
-1.4208086
-1.218024
-1.0585004
-0.93371677
-0.81786489
-0.65245271
-0.49003166
-0.3780145
-0.22000003
-2.2733335
-2.1186309
-1.9776589
-1.7769316
-1.693868
-1.5430455
-1.3525783
-1.3032191
-1.0824053
-0.98327851
-0.81727862
-0.68444085
-0.49941868
-0.36390397
-0.28832701
-0.073333323
-2.1266665
-1.9874183
-1.7748637
-1.690212
-1.5477533
-1.4532968
-1.239496
-1.1100304
-0.91227633
-0.81852251
-0.72067338
-0.46827614
-0.42417634
-0.25674695
-0.041635014
0.073333383
-1.98
-1.8583568
-1.7391323
-1.4515002
-1.3566476
-1.3080759
-1.1140656
-0.97924405
-0.79285353
-0.69422251
-0.49486434
-0.38832638
-0.16425966
-0.020364488
0.092156999
0.22000003
-1.8333334
-1.6958669
-1.5006626
-1.3582343
-1.2283106
-1.0640807
-1.0313644
-0.79641908
-0.59621805
-0.523561
-0.32521665
-0.22633505
-0.094503105
0.10665692
0.20607868
0.36666667
-1.6866666
-1.5029596
-1.4203364
-1.2653913
-1.0714437
-0.99155402
-0.77599037
-0.64965838
-0.54185712
-0.38874993
-0.17395836
-0.09357468
0.014457589
0.17364326
0.36605641
0.51333338
-1.54
-1.3118258
-1.2084441
-1.0648165
-0.97287762
-0.80637544
-0.60903364
-0.56503052
-0.36022922
-0.19651432
-0.048843417
0.086549915
0.21423186
0.33379358
0.52070689
0.66000009
-1.3933333
-1.2995895
-1.0828103
-0.95742047
-0.77206087
-0.69086897
-0.55034071
-0.37473878
-0.22467594
-0.03316493
0.058741033
0.20627867
0.32059672
0.51672399
0.62089765
0.80666673
-1.2466667
-1.0752598
-0.91772586
-0.79123634
-0.65249193
-0.48764798
nan
nan
nan
nan
0.20426001
0.36664149
0.54454941
0.64970601
0.81659663
0.95333338
-1.1
-0.9920795
-0.79426891
-0.62390614
-0.54733938
-0.35968193
nan
nan
nan
nan
0.35475102
0.48508695
0.6667915
0.81448895
0.98731202
1.1
-0.95333326
-0.85602266
-0.70622182
-0.54336369
-0.4109278
-0.256228
nan
nan
nan
nan
0.51602083
0.67665821
0.77476895
0.90294951
1.0952007
1.2466668
-0.80666661
-0.61655235
-0.51806611
-0.42270291
-0.21894078
-0.096392706
nan
nan
nan
nan
0.64019823
0.78273183
0.91475129
1.1289201
1.2622635
1.3933334
-0.65999997
-0.51711905
-0.29023975
-0.23552521
-0.098903924
0.088468492
0.23784836
nan
nan
0.67646521
0.81139815
0.95099699
1.1213584
1.2215877
1.4109336
1.5400001
-0.5133332
-0.34642094
-0.18921302
-0.040583562
0.054546993
0.20692518
0.34398857
0.48193887
0.66520005
0.83875
1.0044773
1.0964239
1.2579309
1.3744164
1.5663555
1.6866668
-0.36666667
-0.22000003
-0.073333323
0.073333383
0.22000003
0.36666667
0.51333338
0.66000009
0.80666673
0.95333338
1.1
1.2466668
1.3933334
1.5400001
1.6866668
1.8333334
-2.4200001
-2.2733333
-2.1266668
-1.98
-1.8333333
-1.6866667
-1.54
-1.3933332
-1.2466667
-1.0999999
-0.95333332
-0.80666655
-0.65999991
-0.51333326
-0.3666665
-0.21999997
-2.2733333
-2.1247311
-1.9308734
-1.8189383
-1.6491647
-1.5576108
-1.3583397
-1.2060409
-1.0586084
-0.9682591
-0.7414093
-0.66746992
-0.50640553
-0.32950869
-0.19275543
-0.073333323
-2.1266668
-1.9518311
-1.8618736
-1.7009329
-1.5586458
-1.3975202
-1.2351471
-1.0781502
-0.93607807
-0.81758624
-0.67297655
-0.48678777
-0.32749724
-0.2312481
-0.019090258
0.073333383
-1.98
-1.8320326
-1.6792519
-1.5764985
-1.3216962
-1.2163861
-1.1168257
-1.0116032
-0.77951819
-0.64869028
-0.48499426
-0.45779738
-0.25307623
-0.058927234
0.098955452
0.22000009
-1.8333333
-1.6871687
-1.5079683
-1.4466537
-1.2344815
-1.064893
-0.9639098
-0.82275444
-0.6578058
-0.47700649
-0.43777567
-0.21028039
-0.087349877
0.08641962
0.26079333
0.36666673
-1.6866667
-1.5622779
-1.3744771
-1.2442921
-0.99857771
-0.9945969
-0.80713207
-0.67413658
-0.54578853
-0.31830701
-0.18234666
-0.12767054
0.055861801
0.19049521
0.36447296
0.51333338
-1.54
-1.4113563
-1.2158822
-1.1617965
-1.0522963
-0.75313807
-0.65438074
-0.49333712
-0.37483209
-0.20053686
-0.053236786
0.028535776
0.19123802
0.37496817
0.53650486
0.66000009
-1.3933332
-1.3021047
-1.2129966
-0.94188321
-0.80470687
-0.71608716
-0.51431024
-0.36067268
-0.22848414
-0.040232554
0.040902749
0.2161835
0.42295134
0.51302391
0.62784386
0.80666679
-1.2466667
-1.1291804
-0.97296923
-0.7770161
-0.71516794
-0.47367704
-0.33249658
nan
nan
0.098577298
0.19083825
0.44622275
0.52138644
0.63588738
0.89364034
0.95333344
-1.0999999
-0.96607184
-0.79167753
-0.71561116
-0.51025492
-0.35822913
-0.22666349
nan
nan
0.22563532
0.35042697
0.53675818
0.70589048
0.81324935
0.96418613
1.1000001
-0.95333332
-0.80825216
-0.65341818
-0.54498398
-0.36997542
-0.25820592
nan
nan
nan
nan
0.50837392
0.67730337
0.81151658
1.0041963
1.0963767
1.2466667
-0.80666655
-0.64185154
-0.5367524
-0.39090768
-0.22026849
-0.076584376
nan
nan
nan
nan
0.67042953
0.83461016
0.96583742
1.1016997
1.2918949
1.3933334
-0.65999991
-0.49877635
-0.37170801
-0.25970769
-0.085322864
nan
nan
nan
nan
nan
nan
0.89929307
1.138764
1.2353313
1.4050522
1.5400002
-0.51333326
-0.34094709
-0.21600084
-0.041299157
0.092136659
0.18686955
0.37264794
nan
nan
0.79237628
0.95877975
1.1281875
1.245998
1.4065821
1.5685261
1.6866667
-0.3666665
-0.21896867
-0.049496386
0.067936569
0.19849865
0.32436001
0.53155082
0.66596663
0.7898066
0.92848277
1.122861
1.2598318
1.4040222
1.5392731
1.7363024
1.8333335
-0.21999997
-0.073333323
0.073333383
0.22000009
0.36666673
0.51333338
0.66000009
0.80666679
0.95333344
1.1000001
1.2466667
1.3933334
1.5400002
1.6866667
1.8333335
1.98
-2.2733333
-2.1266665
-1.98
-1.8333333
-1.6866666
-1.54
-1.3933332
-1.2466666
-1.0999999
-0.95333326
-0.80666661
-0.65999985
-0.5133332
-0.36666656
-0.21999979
-0.073333263
-2.1266665
-2.001256
-1.7949436
-1.7117959
-1.5185759
-1.4456117
-1.2665516
-1.1031854
-0.95908362
-0.78122228
-0.65414047
-0.51271361
-0.40879902
-0.23749804
-0.10324464
0.073333383
-1.98
-1.8496869
-1.6538004
-1.5661346
-1.4109074
-1.2602891
-1.1333724
-0.9692241
-0.80751938
-0.66181391
-0.4740029
-0.39752844
-0.24116203
-0.1001714
0.10094532
0.22000009
-1.8333333
-1.6843375
-1.5702714
-1.2652971
-1.1765763
-1.1021144
nan
-0.778265
-0.65405494
nan
-0.32894656
-0.17615582
-0.11912212
0.10717066
0.15669639
0.36666679
-1.6866666
-1.543357
-1.388041
-1.2650166
-1.1187625
-0.94643295
nan
-0.66400957
-0.50493389
nan
-0.24054098
-0.078422666
0.15650488
0.20537268
0.38897642
0.51333344
-1.54
-1.3888011
-1.2672783
-1.091514
-0.96007746
-0.80220616
nan
-0.5207836
-0.34982249
nan
-0.072475135
0.08092802
0.21458019
0.37774926
0.45058283
0.66000009
-1.3933332
-1.2645458
-1.1133794
-1.0243229
-0.81354541
-0.65470958
nan
nan
nan
nan
0.042500455
0.14865102
0.36176956
0.49462557
0.64345747
0.80666679
-1.2466666
-1.0845876
-1.0022918
-0.82632369
-0.69459945
-0.55633426
nan
nan
nan
nan
0.20005411
0.37904206
0.4836005
0.70665121
0.8397612
0.9533335
-1.0999999
-0.90177155
-0.80557615
-0.62376028
-0.5241909
-0.38198784
nan
nan
nan
nan
0.37883002
0.49802756
0.6020022
0.78725147
0.97240543
1.1000001
-0.95333326
-0.78878546
-0.52249569
-0.55027431
-0.31351656
-0.18651359
-0.071199849
nan
nan
0.36176166
0.50964254
0.62972057
0.82457364
0.98512
1.0989585
1.2466668
-0.80666661
-0.62202531
-0.4772357
-0.37361714
-0.22352639
-0.13836636
nan
nan
nan
nan
0.71681887
0.84926856
0.98669279
1.0881147
1.2414045
1.3933334
-0.65999985
-0.55892414
-0.45709383
-0.20524907
-0.10391267
0.071383461
nan
nan
nan
nan
0.79387289
0.91347384
1.0394448
1.218453
1.4022179
1.5400002
-0.5133332
-0.3933039
-0.19375527
-0.1042347
0.058668789
0.24513328
0.37136567
nan
nan
0.81470305
0.93085933
1.1360202
1.2233417
1.3707417
1.5278041
1.6866668
-0.36666656
-0.18008322
0.0019468454
0.036636263
0.20424525
0.37253687
0.54663086
0.67625195
0.77276993
0.95020145
1.1082767
1.2397521
1.4089314
1.5633836
1.6767482
1.8333335
-0.21999979
-0.047402907
0.053840756
0.22829601
0.35491559
0.52741277
0.66656727
0.792817
0.97792554
1.1224716
1.2415303
1.3509085
1.5508938
1.6921691
1.8833426
1.9800003
-0.073333263
0.073333383
0.22000009
0.36666679
0.51333344
0.66000009
0.80666679
0.9533335
1.1000001
1.2466668
1.3933334
1.5400002
1.6866668
1.8333335
1.9800003
2.1266668
-2.1266665
-1.9799999
-1.8333334
-1.6866666
-1.54
-1.3933333
-1.2466666
-1.0999999
-0.95333326
-0.80666661
-0.65999997
-0.5133332
-0.36666656
-0.21999991
-0.073333144
0.073333383
-1.9799999
-1.8462005
-1.7154969
-1.5382798
-1.3422318
-1.2204987
-1.166589
-0.89483857
-0.81293756
-0.66865379
-0.50282592
-0.3814708
-0.25234053
-0.054237124
0.079756722
0.22000003
-1.8333334
-1.68931
-1.5575982
-1.4037929
-1.2198554
-1.0860293
-0.94965994
-0.85567725
-0.6889872
-0.49031147
-0.32972139
-0.20241572
-0.062396206
0.062741958
0.24131155
0.36666673
-1.6866666
-1.5141828
-1.3903384
-1.3043479
-1.1074328
-0.92694455
nan
-0.68885225
-0.49598089
nan
-0.22018598
-0.076873288
0.078444071
0.24878478
0.39110333
0.51333344
-1.54
-1.4538481
-1.2160404
-1.077522
-0.89372075
nan
nan
-0.50381309
-0.37543482
nan
nan
0.055837825
0.23509508
0.39966369
0.49802846
0.66000009
-1.3933333
-1.2755882
-1.0475656
-1.0294603
-0.74677193
nan
nan
nan
nan
nan
nan
0.22583249
0.35959166
0.52389467
0.653418
0.80666673
-1.2466666
-1.094662
-0.98956513
-0.7979694
-0.58706039
nan
nan
nan
nan
nan
nan
0.31348851
0.5157575
0.55395848
0.78754568
0.95333344
-1.0999999
-0.98377687
-0.8572247
-0.65024793
-0.51322651
-0.37099615
nan
nan
nan
nan
0.37474787
0.50879198
0.60955733
0.79671019
0.96901405
1.1000001
-0.95333326
-0.80483526
-0.64097226
-0.5349139
-0.31807855
-0.24148315
nan
nan
nan
nan
0.49365813
0.65220523
0.82844019
1.0011041
1.1057036
1.2466668
-0.80666661
-0.67288291
-0.52600408
-0.3166846
-0.17786428
-0.09561681
nan
nan
nan
nan
0.65442938
0.82406914
1.0358592
1.1031501
1.2076696
1.3933334
-0.65999997
-0.47712669
-0.32147601
-0.28608885
-0.048345599
0.030050242
0.20412348
0.35195243
0.5286597
0.66370398
0.82092726
0.91521913
1.0711401
1.2564113
1.411155
1.5400001
-0.5133332
-0.37167391
-0.26015896
-0.031335719
0.063097224
0.22149333
0.30018356
0.50522554
0.64220536
0.80108553
0.97138029
1.1209855
1.2793261
1.3500016
1.5299977
1.6866668
-0.36666656
-0.19745803
-0.038485181
0.0078104232
0.24990104
0.44282383
0.55502534
0.65222466
0.84874165
0.9707424
1.0702078
1.2835517
1.4179674
1.4735425
1.6498369
1.8333335
-0.21999991
-0.10472773
0.12064569
0.2340654
0.32238474
0.53348356
0.60805315
0.77868772
0.99213976
1.1754229
1.2462146
1.4391965
1.5333762
1.6965235
1.8099762
1.9800001
-0.073333144
0.061433025
0.19359486
0.3680748
0.4981893
0.70198619
0.79618126
0.9064039
1.1443131
1.2534639
1.4149982
1.5158075
1.7743396
1.8749243
1.9839913
2.126667
0.073333383
0.22000003
0.36666673
0.51333344
0.66000009
0.80666673
0.95333344
1.1000001
1.2466668
1.3933334
1.5400001
1.6866668
1.8333335
1.9800001
2.126667
2.2733335
-1.98
-1.8333333
-1.6866667
-1.54
-1.3933333
-1.2466667
-1.0999999
-0.95333326
-0.80666661
-0.65999997
-0.51333332
-0.36666656
-0.21999991
-0.073333263
0.073333502
0.22000003
-1.8333333
-1.7056042
-1.4968786
-1.3862399
-1.2551765
-1.1514567
-0.98431128
-0.78119433
-0.59515864
-0.52606195
-0.32106119
-0.26279357
-0.087228812
0.08251971
0.23354319
0.36666667
-1.6866667
-1.565665
-1.410331
-1.3012043
-1.0972213
-0.9343276
-0.77885741
-0.66063327
-0.54768473
-0.31482273
-0.19466779
-0.088673152
0.0677002
0.23326831
0.37525031
0.51333338
-1.54
-1.3417362
-1.2503321
-1.1173187
-1.0275475
-0.82051039
-0.66305977
-0.51306558
-0.36687046
-0.21717033
-0.092278905
0.14361854
0.18400885
0.38641801
0.52390009
0.66000009
-1.3933333
-1.2724645
-1.1040676
-0.95626736
-0.83737409
-0.68966585
-0.50819147
-0.35720426
-0.21503514
-0.099434607
0.061457548
0.21905974
0.41819176
0.52184349
0.66585988
0.80666673
-1.2466667
-1.0975649
-0.92222935
-0.77686304
-0.64121586
-0.5153085
nan
nan
nan
nan
0.22007814
0.40563953
0.53989315
0.67372054
0.78624761
0.95333338
-1.0999999
-0.90988833
-0.81457466
-0.66073376
-0.53963101
nan
nan
nan
nan
nan
nan
0.53738105
0.6160332
0.85750717
0.94498771
1.1000001
-0.95333326
-0.8688637
-0.78162467
-0.43895853
-0.36877057
nan
nan
nan
nan
nan
nan
0.69199497
0.82517761
0.93591136
1.1139995
1.2466668
-0.80666661
-0.61915064
-0.47087541
-0.38216242
-0.23385181
-0.087452441
nan
nan
nan
nan
0.67795205
0.68816429
1.0091516
1.080896
1.2702966
1.3933334
-0.65999997
-0.57941848
-0.38794976
-0.28000793
-0.041758787
0.074569546
nan
nan
nan
nan
0.81653929
0.93014359
1.0426321
1.2327462
1.3685583
1.5400001
-0.51333332
-0.34462985
-0.27389941
-0.079823345
0.041552816
0.20944327
0.32323459
0.49638686
0.63121468
0.83498728
0.98176074
1.0759162
1.3147051
1.3292297
1.5008039
1.6866667
-0.36666656
-0.21316887
-0.10704122
0.12831849
0.25882292
0.26299641
0.44503739
0.6481905
0.82785052
0.9262554
1.1608392
1.3016802
1.3607588
1.5396801
1.7216991
1.8333335
-0.21999991
-0.092491478
0.042626139
0.21254699
0.2803615
0.5699442
0.71351868
0.86842722
0.95970571
1.1004475
1.2237031
1.3707471
1.6292503
1.6481484
1.8154186
1.9800001
-0.073333263
0.087615453
0.22946393
0.37056375
0.44986579
0.65925074
0.82364845
0.97380918
1.1231917
1.1719176
1.4365973
1.4578208
1.6937333
1.8613229
1.9768112
2.1266668
0.073333502
0.18896089
0.32979316
0.56683135
0.67001683
0.8529321
1.0006654
1.0772822
1.2218667
1.4091977
1.5142463
1.7070941
1.8610548
2.0031016
2.1632905
2.2733335
0.22000003
0.36666667
0.51333338
0.66000009
0.80666673
0.95333338
1.1000001
1.2466668
1.3933334
1.5400001
1.6866667
1.8333335
1.9800001
2.1266668
2.2733335
2.4200001
-1.8333334
-1.6866666
-1.5400001
-1.3933333
-1.2466667
-1.1
-0.95333326
-0.80666661
-0.65999997
-0.51333332
-0.36666667
-0.21999991
-0.073333263
0.073333383
0.22000015
0.36666667
-1.6866666
-1.5568326
-1.354575
-1.2658406
-1.1456351
-0.94746894
-0.84274733
-0.6808759
-0.51856804
-0.34701696
-0.2177083
-0.16639517
0.039424323
0.18091263
0.37735122
0.51333332
-1.5400001
-1.3497424
-1.277954
-1.0426631
-0.95695108
-0.7758745
-0.69608271
-0.52943671
-0.4195013
-0.23027778
-0.081748344
0.07077568
0.21633519
0.40201879
0.52400929
0.66000003
-1.3933333
-1.2513394
-1.1142343
-0.9002443
-0.88549829
-0.65603882
-0.49209467
-0.40681642
-0.2125009
-0.067477241
0.056428839
0.26306751
0.31308755
0.46236935
0.68390441
0.80666673
-1.2466667
-1.1051284
-0.99219835
-0.79926085
-0.67675143
-0.51508141
-0.34138507
nan
nan
0.073637046
0.19037147
0.32839608
0.49368513
0.70114738
0.77784783
0.95333338
-1.1
-0.92869687
-0.79345691
-0.68500948
-0.47944513
-0.36168849
nan
nan
nan
nan
0.36398917
0.4706232
0.6385684
0.83477342
0.9040454
1.1
-0.95333326
-0.79346138
-0.64645994
-0.45769656
-0.33017457
nan
nan
nan
nan
nan
nan
0.68132603
0.83802962
0.99191993
1.0850583
1.2466667
-0.80666661
-0.70110172
-0.53281295
-0.35044122
-0.19216968
nan
nan
nan
nan
nan
nan
0.7609241
0.92333609
1.133497
1.2368628
1.3933334
-0.65999997
-0.56351769
-0.36689267
-0.2613053
-0.063766651
0.078531452
nan
nan
nan
nan
0.80290264
0.98248082
1.043389
1.203391
1.3838619
1.5400001
-0.51333332
-0.39168996
-0.19919969
-0.20388149
0.10020683
0.18640865
0.35465243
nan
nan
0.79526597
0.98591435
1.1038584
1.2804474
1.3786539
1.5262213
1.6866667
-0.36666667
-0.27466348
-0.10369327
0.038786687
0.25098726
0.39374673
0.49238715
0.60657567
0.80883282
0.98989123
1.1105909
1.2499408
1.4234034
1.6059852
1.6994336
1.8333334
-0.21999991
-0.079179034
-0.020132598
0.13796845
0.41357157
0.5620957
0.67261392
0.7883358
0.94898504
1.0952814
1.2104105
1.4040123
1.5689466
1.70084
1.8690219
1.9800001
-0.073333263
0.089992791
0.22820409
0.44384533
0.59174311
0.61303943
0.72669327
0.94023913
1.0970907
1.2859845
1.3139198
1.5868001
1.691705
1.8785673
1.9062445
2.1266668
0.073333383
0.23568252
0.37456876
0.55797178
0.64125162
0.80491167
0.97144324
1.0741371
1.2032523
1.3352197
1.5844547
1.6789002
1.8534085
1.9775003