# vtk DataFile Version 3.0
Zombie mixed Neumann structured grid
ASCII
DATASET STRUCTURED_POINTS
DIMENSIONS 8 8 8
ORIGIN -1.1 -1.1 -1.1
SPACING 0.31428571428571433 0.31428571428571433 0.31428571428571433
POINT_DATA 512
SCALARS solution float 1
LOOKUP_TABLE default
-3.3000001907348633
-2.9857144355773926
-2.671428680419922
-2.357142925262451
-2.0428571701049805
-1.7285715341567993
-1.4142857789993286
-1.100000023841858
-2.9857144355773926
-2.671428680419922
-2.357142925262451
-2.0428571701049805
-1.7285714149475098
-1.414285659790039
-1.100000023841858
-0.7857142686843872
-2.671428680419922
-2.357142686843872
-2.0428571701049805
-1.7285714149475098
-1.414285659790039
-1.1000001430511475
-0.7857144474983215
-0.4714285135269165
-2.357142925262451
-2.0428571701049805
-1.7285714149475098
-1.4142857789993286
-1.100000262260437
-0.7857140898704529
-0.47142887115478516
-0.15714287757873535
-2.0428571701049805
-1.7285715341567993
-1.4142857789993286
-1.1000001430511475
-0.7857142686843872
-0.47142860293388367
-0.15714293718338013
0.15714287757873535
-1.7285715341567993
-1.4142857789993286
-1.1000001430511475
-0.7857143878936768
-0.47142887115478516
-0.1571429967880249
0.1571425199508667
0.4714285731315613
-1.4142857789993286
-1.1000001430511475
-0.7857145071029663
-0.4714288115501404
-0.15714293718338013
0.1571427583694458
0.4714285135269165
0.7857142686843872
-1.100000023841858
-0.7857142686843872
-0.4714285731315613
-0.15714287757873535
0.15714287757873535
0.4714285731315613
0.7857142686843872
1.100000023841858
-2.9857144355773926
-2.671428680419922
-2.357142925262451
-2.0428571701049805
-1.7285715341567993
-1.414285659790039
-1.1000001430511475
-0.7857142686843872
-2.671428680419922
-2.312788963317871
-1.987276554107666
-1.7515840530395508
-1.4532941579818726
-1.0027438402175903
-0.8347043395042419
-0.4714285135269165
-2.357142925262451
-1.9966739416122437
-1.8499550819396973
-1.674417495727539
-1.12447190284729
-0.9046085476875305
-0.560493528842926
-0.1571425199508667
-2.0428571701049805
-1.7923177480697632
-1.4896677732467651
-1.509569525718689
-0.5532549619674683
-0.6404679417610168
-0.3154021203517914
0.15714293718338013
-1.7285714149475098
-1.488088846206665
-1.2080843448638916
-0.7151199579238892
-1.239966630935669
-0.10522285103797913
0.04703714698553085
0.4714288115501404
-1.4142857789993286
-1.1046141386032104
-0.7156947255134583
-0.7398371696472168
-0.29267844557762146
0.07404325157403946
0.6024498343467712
0.7857145071029663
-1.100000023841858
-0.6998504400253296
-0.306906133890152
-0.06402133405208588
-0.04111284762620926
0.1353970766067505
0.7357993125915527
1.100000023841858
-0.7857142686843872
-0.4714285135269165
-0.1571427583694458
0.15714293718338013
0.4714288115501404
0.7857145071029663
1.1000001430511475
1.4142857789993286
-2.671428680419922
-2.357142686843872
-2.0428571701049805
-1.7285714149475098
-1.414285659790039
-1.1000001430511475
-0.7857144474983215
-0.4714285135269165
-2.357142925262451
-2.276765823364258
-1.971801996231079
-1.546379804611206
-1.174060344696045
-0.8805250525474548
-0.7541239857673645
-0.1571427583694458
-2.0428571701049805
-1.5511749982833862
-1.4790493249893188
-1.087068796157837
-0.4551908075809479
-0.6471193432807922
-0.042310524731874466
0.1571429967880249
-1.7285714149475098
-1.3699856996536255
-0.9447842836380005
-0.6516866683959961
-0.6231430768966675
-0.43373605608940125
0.0095616290345788
0.47142863273620605
-1.414285659790039
-1.135244607925415
-1.1962329149246216
0.0
0.0
-0.2589326500892639
0.24193879961967468
0.7857140898704529
-1.1000001430511475
-0.6481195688247681
-0.0982464924454689
0.0
0.0
0.47687798738479614
0.6836389303207397
1.1000001430511475
-0.7857145071029663
-0.6480491161346436
-0.3038860559463501
-0.26623809337615967
0.17945578694343567
0.948857843875885
1.1233700513839722
1.4142857789993286
-0.4714285731315613
-0.1571425199508667
0.1571429967880249
0.47142887115478516
0.7857143878936768
1.1000001430511475
1.4142857789993286
1.7285715341567993
-2.357142925262451
-2.0428571701049805
-1.7285714149475098
-1.4142857789993286
-1.1000001430511475
-0.7857143878936768
-0.47142887115478516
-0.15714287757873535
-2.0428571701049805
-1.745745301246643
-1.4510303735733032
-1.3005348443984985
-1.2308658361434937
-0.5819776058197021
-0.11394194513559341
0.15714293718338013
-1.7285714149475098
-1.5516802072525024
-0.6649459600448608
-1.491128921508789
-0.7380480170249939
-0.3874851167201996
0.303611159324646
0.47142887115478516
-1.4142857789993286
-1.1609126329421997
-0.9789667129516602
0.0
0.0
-0.13554580509662628
0.44287315011024475
0.7857142686843872
-1.1000001430511475
-1.1630432605743408
-0.30712196230888367
-0.844257652759552
-0.09533432126045227
0.6295022964477539
0.6410396099090576
1.1000001430511475
-0.7857140898704529
-0.5259385704994202
0.0701601654291153
0.0
0.0
1.2178279161453247
1.132068395614624
1.414285659790039
-0.4714288115501404
-0.26445478200912476
0.3202386796474457
0.23399896919727325
1.1285479068756104
1.1540759801864624
1.245452642440796
1.7285714149475098
-0.15714287757873535
0.15714293718338013
0.47142860293388367
0.7857142686843872
1.1000001430511475
1.4142857789993286
1.7285715341567993
2.0428571701049805
-2.0428571701049805
-1.7285714149475098
-1.414285659790039
-1.1000001430511475
-0.7857142686843872
-0.47142887115478516
-0.15714293718338013
0.15714287757873535
-1.7285715341567993
-1.1562546491622925
-1.40912663936615
-0.9851678013801575
-0.15224169194698334
0.08050043880939484
0.1152021512389183
0.4714288115501404
-1.4142857789993286
-1.0152556896209717
-0.9028182625770569
0.0
0.0
0.1329851746559143
0.18587011098861694
0.7857143878936768
-1.1000001430511475
-0.6005713939666748
-0.2632060945034027
0.0
0.0
0.6939458250999451
0.7403236627578735
1.1000001430511475
-0.7857142686843872
-0.8814623355865479
-0.5095585584640503
0.0
0.0
1.1166939735412598
1.1039878129959106
1.4142857789993286
-0.47142863273620605
-0.27603277564048767
0.05443008989095688
0.11118491739034653
0.2609110474586487
0.5855379104614258
1.4854882955551147
1.7285714149475098
-0.15714293718338013
0.24531584978103638
0.6997338533401489
0.6915426254272461
0.8544679284095764
1.3410335779190063
1.56947922706604
2.0428571701049805
0.15714287757873535
0.47142887115478516
0.7857140898704529
1.100000262260437
1.4142857789993286
1.7285714149475098
2.0428571701049805
2.357142925262451
-1.7285715341567993
-1.4142857789993286
-1.1000001430511475
-0.7857140898704529
-0.47142863273620605
-0.1571429967880249
0.1571427583694458
0.4714285731315613
-1.4142857789993286
-1.068732500076294
-0.92055743932724
-0.3052162230014801
-0.6570228338241577
0.1057034581899643
0.39739468693733215
0.7857145071029663
-1.1000001430511475
-1.048962950706482
-1.2200082540512085
0.0
0.0
0.18559491634368896
0.6086639165878296
1.1000001430511475
-0.7857143878936768
-0.6157359480857849
-0.16955050826072693
0.0
0.0
0.5526012778282166
1.0565812587738037
1.4142857789993286
-0.47142887115478516
-0.4075155258178711
-0.2790471017360687
0.0
0.0
1.5065937042236328
1.4745502471923828
1.7285714149475098
-0.1571429967880249
0.27435484528541565
0.43209266662597656
0.7914104461669922
1.1947649717330933
1.2887991666793823
1.7630012035369873
2.0428571701049805
0.1571425199508667
0.62035071849823
0.8212928175926208
1.1265003681182861
1.4358934164047241
1.5493886470794678
1.9730476140975952
2.357142925262451
0.4714285135269165
0.7857144474983215
1.1000001430511475
1.414285659790039
1.7285714149475098
2.0428571701049805
2.357142686843872
2.671428680419922
-1.4142857789993286
-1.100000023841858
-0.7857145071029663
-0.4714288115501404
-0.15714293718338013
0.1571425199508667
0.4714285135269165
0.7857142686843872
-1.1000001430511475
-0.8844559192657471
-0.38807183504104614
-0.3055647909641266
0.11660051345825195
0.724772572517395
0.903346598148346
1.1000001430511475
-0.7857145071029663
-0.7363808155059814
-0.19696441292762756
0.0
0.0
0.5551431775093079
0.9107775092124939
1.4142857789993286
-0.4714288115501404
-0.40676939487457275
0.2510046362876892
0.0
0.0
1.0365501642227173
1.3086894750595093
1.7285715341567993
-0.15714293718338013
0.02497963234782219
0.34812381863594055
0.6041856408119202
1.0544426441192627
1.3269684314727783
1.5715521574020386
2.0428571701049805
0.1571427583694458
0.5750554800033569
0.7742325067520142
1.1510381698608398
1.3701072931289673
1.4876446723937988
2.089452028274536
2.357142925262451
0.4714285135269165
0.6818675994873047
1.189915418624878
1.421765923500061
1.6092642545700073
1.885041356086731
2.18117618560791
2.671428680419922
0.7857142686843872
1.100000023841858
1.414285659790039
1.7285714149475098
2.0428571701049805
2.357142925262451
2.671428680419922
2.9857144355773926
-1.100000023841858
-0.7857142686843872
-0.4714285731315613
-0.15714287757873535
0.15714287757873535
0.4714285731315613
0.7857142686843872
1.100000023841858
-0.7857142686843872
-0.4714285135269165
-0.1571425199508667
0.15714293718338013
0.4714288115501404
0.7857145071029663
1.100000023841858
1.4142857789993286
-0.4714285731315613
-0.1571427583694458
0.1571429967880249
0.47142863273620605
0.7857140898704529
1.1000001430511475
1.4142857789993286
1.7285715341567993
-0.15714287757873535
0.15714293718338013
0.47142887115478516
0.7857142686843872
1.1000001430511475
1.414285659790039
1.7285714149475098
2.0428571701049805
0.15714287757873535
0.47142887115478516
0.7857143878936768
1.1000001430511475
1.4142857789993286
1.7285714149475098
2.0428571701049805
2.357142925262451
0.4714285135269165
0.7857144474983215
1.1000001430511475
1.414285659790039
1.7285714149475098
2.0428571701049805
2.357142686843872
2.671428680419922
0.7857142686843872
1.1000001430511475
1.414285659790039
1.7285715341567993
2.0428571701049805
2.357142925262451
2.671428680419922
2.9857144355773926
1.100000023841858
1.4142857789993286
1.7285715341567993
2.0428571701049805
2.357142925262451
2.671428680419922
2.9857144355773926
3.3000001907348633
SCALARS exact float 1
LOOKUP_TABLE default
-3.3000000715255737
-2.985714316368103
-2.671428620815277
-2.35714291036129
-2.0428571850061417
-1.7285714745521545
-1.4142857789993286
-1.100000023841858
-2.985714316368103
-2.6714285612106323
-2.3571428656578064
-2.0428571552038193
-1.728571429848671
-1.4142857193946838
-1.100000023841858
-0.7857142686843872
-2.671428620815277
-2.3571428656578064
-2.0428571701049805
-1.7285714596509933
-1.414285734295845
-1.100000023841858
-0.785714328289032
-0.4714285731315613
-2.35714291036129
-2.0428571552038193
-1.7285714596509933
-1.4142857491970062
-1.100000023841858
-0.7857143133878708
-0.47142861783504486
-0.15714286267757416
-2.0428571850061417
-1.728571429848671
-1.414285734295845
-1.100000023841858
-0.7857142984867096
-0.4714285880327225
-0.15714289247989655
0.15714286267757416
-1.7285714745521545
-1.4142857193946838
-1.100000023841858
-0.7857143133878708
-0.4714285880327225
-0.15714287757873535
0.15714281797409058
0.4714285731315613
-1.4142857789993286
-1.100000023841858
-0.785714328289032
-0.47142861783504486
-0.15714289247989655
0.15714281797409058
0.4714285135269165
0.7857142686843872
-1.100000023841858
-0.7857142686843872
-0.4714285731315613
-0.15714286267757416
0.15714286267757416
0.4714285731315613
0.7857142686843872
1.100000023841858
-2.985714316368103
-2.6714285612106323
-2.3571428656578064
-2.0428571552038193
-1.728571429848671
-1.4142857193946838
-1.100000023841858
-0.7857142686843872
-2.6714285612106323
-2.3571428060531616
-2.0428571105003357
-1.7285714000463486
-1.4142856746912003
-1.0999999642372131
-0.7857142686843872
-0.4714285135269165
-2.3571428656578064
-2.0428571105003357
-1.7285714149475098
-1.4142857044935226
-1.0999999791383743
-0.7857142686843872
-0.4714285731315613
-0.15714281797409058
-2.0428571552038193
-1.7285714000463486
-1.4142857044935226
-1.0999999940395355
-0.7857142686843872
-0.4714285582304001
-0.15714286267757416
0.15714289247989655
-1.728571429848671
-1.4142856746912003
-1.0999999791383743
-0.7857142686843872
-0.4714285433292389
-0.15714283287525177
0.15714286267757416
0.47142861783504486
-1.4142857193946838
-1.0999999642372131
-0.7857142686843872
-0.4714285582304001
-0.15714283287525177
0.15714287757873535
0.4714285731315613
0.785714328289032
-1.100000023841858
-0.7857142686843872
-0.4714285731315613
-0.15714286267757416
0.15714286267757416
0.4714285731315613
0.7857142686843872
1.100000023841858
-0.7857142686843872
-0.4714285135269165
-0.15714281797409058
0.15714289247989655
0.47142861783504486
0.785714328289032
1.100000023841858
1.4142857789993286
-2.671428620815277
-2.3571428656578064
-2.0428571701049805
-1.7285714596509933
-1.414285734295845
-1.100000023841858
-0.785714328289032
-0.4714285731315613
-2.3571428656578064
-2.0428571105003357
-1.7285714149475098
-1.4142857044935226
-1.0999999791383743
-0.7857142686843872
-0.4714285731315613
-0.15714281797409058
-2.0428571701049805
-1.7285714149475098
-1.4142857193946838
-1.1000000089406967
-0.7857142835855484
-0.4714285731315613
-0.15714287757873535
0.15714287757873535
-1.7285714596509933
-1.4142857044935226
-1.1000000089406967
-0.7857142984867096
-0.4714285731315613
-0.15714286267757416
0.15714283287525177
0.4714285880327225
-1.414285734295845
-1.0999999791383743
-0.7857142835855484
-0.4714285731315613
-0.15714284777641296
0.15714286267757416
0.4714285582304001
0.7857143133878708
-1.100000023841858
-0.7857142686843872
-0.4714285731315613
-0.15714286267757416
0.15714286267757416
0.4714285731315613
0.7857142686843872
1.100000023841858
-0.785714328289032
-0.4714285731315613
-0.15714287757873535
0.15714283287525177
0.4714285582304001
0.7857142686843872
1.0999999642372131
1.4142857193946838
-0.4714285731315613
-0.15714281797409058
0.15714287757873535
0.4714285880327225
0.7857143133878708
1.100000023841858
1.4142857193946838
1.7285714745521545
-2.35714291036129
-2.0428571552038193
-1.7285714596509933
-1.4142857491970062
-1.100000023841858
-0.7857143133878708
-0.47142861783504486
-0.15714286267757416
-2.0428571552038193
-1.7285714000463486
-1.4142857044935226
-1.0999999940395355
-0.7857142686843872
-0.4714285582304001
-0.15714286267757416
0.15714289247989655
-1.7285714596509933
-1.4142857044935226
-1.1000000089406967
-0.7857142984867096
-0.4714285731315613
-0.15714286267757416
0.15714283287525177
0.4714285880327225
-1.4142857491970062
-1.0999999940395355
-0.7857142984867096
-0.4714285880327225
-0.15714286267757416
0.15714284777641296
0.4714285433292389
0.7857142984867096
-1.100000023841858
-0.7857142686843872
-0.4714285731315613
-0.15714286267757416
0.15714286267757416
0.4714285731315613
0.7857142686843872
1.100000023841858
-0.7857143133878708
-0.4714285582304001
-0.15714286267757416
0.15714284777641296
0.4714285731315613
0.7857142835855484
1.0999999791383743
1.414285734295845
-0.47142861783504486
-0.15714286267757416
0.15714283287525177
0.4714285433292389
0.7857142686843872
1.0999999791383743
1.4142856746912003
1.728571429848671
-0.15714286267757416
0.15714289247989655
0.4714285880327225
0.7857142984867096
1.100000023841858
1.414285734295845
1.728571429848671
2.0428571850061417
-2.0428571850061417
-1.728571429848671
-1.414285734295845
-1.100000023841858
-0.7857142984867096
-0.4714285880327225
-0.15714289247989655
0.15714286267757416
-1.728571429848671
-1.4142856746912003
-1.0999999791383743
-0.7857142686843872
-0.4714285433292389
-0.15714283287525177
0.15714286267757416
0.47142861783504486
-1.414285734295845
-1.0999999791383743
-0.7857142835855484
-0.4714285731315613
-0.15714284777641296
0.15714286267757416
0.4714285582304001
0.7857143133878708
-1.100000023841858
-0.7857142686843872
-0.4714285731315613
-0.15714286267757416
0.15714286267757416
0.4714285731315613
0.7857142686843872
1.100000023841858
-0.7857142984867096
-0.4714285433292389
-0.15714284777641296
0.15714286267757416
0.4714285880327225
0.7857142984867096
1.0999999940395355
1.4142857491970062
-0.4714285880327225
-0.15714283287525177
0.15714286267757416
0.4714285731315613
0.7857142984867096
1.1000000089406967
1.4142857044935226
1.7285714596509933
-0.15714289247989655
0.15714286267757416
0.4714285582304001
0.7857142686843872
1.0999999940395355
1.4142857044935226
1.7285714000463486
2.0428571552038193
0.15714286267757416
0.47142861783504486
0.7857143133878708
1.100000023841858
1.4142857491970062
1.7285714596509933
2.0428571552038193
2.35714291036129
-1.7285714745521545
-1.4142857193946838
-1.100000023841858
-0.7857143133878708
-0.4714285880327225
-0.15714287757873535
0.15714281797409058
0.4714285731315613
-1.4142857193946838
-1.0999999642372131
-0.7857142686843872
-0.4714285582304001
-0.15714283287525177
0.15714287757873535
0.4714285731315613
0.785714328289032
-1.100000023841858
-0.7857142686843872
-0.4714285731315613
-0.15714286267757416
0.15714286267757416
0.4714285731315613
0.7857142686843872
1.100000023841858
-0.7857143133878708
-0.4714285582304001
-0.15714286267757416
0.15714284777641296
0.4714285731315613
0.7857142835855484
1.0999999791383743
1.414285734295845
-0.4714285880327225
-0.15714283287525177
0.15714286267757416
0.4714285731315613
0.7857142984867096
1.1000000089406967
1.4142857044935226
1.7285714596509933
-0.15714287757873535
0.15714287757873535
0.4714285731315613
0.7857142835855484
1.1000000089406967
1.4142857193946838
1.7285714149475098
2.0428571701049805
0.15714281797409058
0.4714285731315613
0.7857142686843872
1.0999999791383743
1.4142857044935226
1.7285714149475098
2.0428571105003357
2.3571428656578064
0.4714285731315613
0.785714328289032
1.100000023841858
1.414285734295845
1.7285714596509933
2.0428571701049805
2.3571428656578064
2.671428620815277
-1.4142857789993286
-1.100000023841858
-0.785714328289032
-0.47142861783504486
-0.15714289247989655
0.15714281797409058
0.4714285135269165
0.7857142686843872
-1.100000023841858
-0.7857142686843872
-0.4714285731315613
-0.15714286267757416
0.15714286267757416
0.4714285731315613
0.7857142686843872
1.100000023841858
-0.785714328289032
-0.4714285731315613
-0.15714287757873535
0.15714283287525177
0.4714285582304001
0.7857142686843872
1.0999999642372131
1.4142857193946838
-0.47142861783504486
-0.15714286267757416
0.15714283287525177
0.4714285433292389
0.7857142686843872
1.0999999791383743
1.4142856746912003
1.728571429848671
-0.15714289247989655
0.15714286267757416
0.4714285582304001
0.7857142686843872
1.0999999940395355
1.4142857044935226
1.7285714000463486
2.0428571552038193
0.15714281797409058
0.4714285731315613
0.7857142686843872
1.0999999791383743
1.4142857044935226
1.7285714149475098
2.0428571105003357
2.3571428656578064
0.4714285135269165
0.7857142686843872
1.0999999642372131
1.4142856746912003
1.7285714000463486
2.0428571105003357
2.3571428060531616
2.6714285612106323
0.7857142686843872
1.100000023841858
1.4142857193946838
1.728571429848671
2.0428571552038193
2.3571428656578064
2.6714285612106323
2.985714316368103
-1.100000023841858
-0.7857142686843872
-0.4714285731315613
-0.15714286267757416
0.15714286267757416
0.4714285731315613
0.7857142686843872
1.100000023841858
-0.7857142686843872
-0.4714285135269165
-0.15714281797409058
0.15714289247989655
0.47142861783504486
0.785714328289032
1.100000023841858
1.4142857789993286
-0.4714285731315613
-0.15714281797409058
0.15714287757873535
0.4714285880327225
0.7857143133878708
1.100000023841858
1.4142857193946838
1.7285714745521545
-0.15714286267757416
0.15714289247989655
0.4714285880327225
0.7857142984867096
1.100000023841858
1.414285734295845
1.728571429848671
2.0428571850061417
0.15714286267757416
0.47142861783504486
0.7857143133878708
1.100000023841858
1.4142857491970062
1.7285714596509933
2.0428571552038193
2.35714291036129
0.4714285731315613
0.785714328289032
1.100000023841858
1.414285734295845
1.7285714596509933
2.0428571701049805
2.3571428656578064
2.671428620815277
0.7857142686843872
1.100000023841858
1.4142857193946838
1.728571429848671
2.0428571552038193
2.3571428656578064
2.6714285612106323
2.985714316368103
1.100000023841858
1.4142857789993286
1.7285714745521545
2.0428571850061417
2.35714291036129
2.671428620815277
2.985714316368103
3.3000000715255737
SCALARS abs_error float 1
LOOKUP_TABLE default
1.1920928955078125e-07
1.1920928955078125e-07
5.960464477539063e-08
1.4901161193847656e-08
1.4901161193847656e-08
5.960464477539063e-08
0.0
0.0
1.1920928955078125e-07
1.1920928955078125e-07
5.960464477539063e-08
1.4901161193847656e-08
1.4901161193847656e-08
5.960464477539063e-08
0.0
0.0
5.960464477539063e-08
1.7881393432617188e-07
0.0
4.470348358154297e-08
7.450580596923828e-08
1.1920928955078125e-07
1.1920928955078125e-07
5.960464477539063e-08
1.4901161193847656e-08
1.4901161193847656e-08
4.470348358154297e-08
2.9802322387695312e-08
2.384185791015625e-07
2.2351741790771484e-07
2.5331974029541016e-07
1.4901161193847656e-08
1.4901161193847656e-08
1.043081283569336e-07
4.470348358154297e-08
1.1920928955078125e-07
2.9802322387695312e-08
1.4901161193847656e-08
4.470348358154297e-08
1.4901161193847656e-08
5.960464477539063e-08
5.960464477539063e-08
1.1920928955078125e-07
7.450580596923828e-08
2.8312206268310547e-07
1.1920928955078125e-07
2.980232238769531e-07
0.0
0.0
1.1920928955078125e-07
1.7881393432617188e-07
1.9371509552001953e-07
4.470348358154297e-08
5.960464477539063e-08
0.0
0.0
0.0
0.0
0.0
1.4901161193847656e-08
1.4901161193847656e-08
0.0
0.0
0.0
1.1920928955078125e-07
1.1920928955078125e-07
5.960464477539063e-08
1.4901161193847656e-08
1.043081283569336e-07
5.960464477539063e-08
1.1920928955078125e-07
0.0
1.1920928955078125e-07
0.04435384273529053
0.05558055639266968
0.02301265299320221
0.0390084832906723
0.0972561240196228
0.048990070819854736
0.0
5.960464477539063e-08
0.04618316888809204
0.1213836669921875
0.2601317912340164
0.02447192370891571
0.11889427900314331
0.08906495571136475
2.980232238769531e-07
1.4901161193847656e-08
0.06374634802341461
0.07538206875324249
0.40956953167915344
0.23245930671691895
0.16903938353061676
0.15825925767421722
4.470348358154297e-08
1.4901161193847656e-08
0.07380317151546478
0.10808436572551727
0.07059431076049805
0.76853808760643
0.051919981837272644
0.1101057156920433
1.9371509552001953e-07
5.960464477539063e-08
0.0046141743659973145
0.07001954317092896
0.2684086114168167
0.1355356127023697
0.08309962600469589
0.13102126121520996
1.7881393432617188e-07
0.0
0.08586382865905762
0.1645224392414093
0.09312152862548828
0.19825571030378342
0.3360314965248108
0.04991495609283447
0.0
0.0
0.0
5.960464477539063e-08
4.470348358154297e-08
1.9371509552001953e-07
1.7881393432617188e-07
1.1920928955078125e-07
0.0
5.960464477539063e-08
1.7881393432617188e-07
0.0
4.470348358154297e-08
7.450580596923828e-08
1.1920928955078125e-07
1.1920928955078125e-07
5.960464477539063e-08
5.960464477539063e-08
0.23390871286392212
0.24323058128356934
0.1320941001176834
0.0740603655576706
0.09481078386306763
0.2826954126358032
5.960464477539063e-08
0.0
0.17739641666412354
0.06476360559463501
0.012931212782859802
0.3305234760046005
0.17569077014923096
0.11483235284686089
1.1920928955078125e-07
4.470348358154297e-08
0.044300004839897156
0.15521572530269623
0.1340276300907135
0.1517145037651062
0.2765931934118271
0.14758120384067297
4.470348358154297e-08
7.450580596923828e-08
0.03524462878704071
0.4105186313390732
0.0
0.0
0.4160755127668381
0.2294897586107254
2.2351741790771484e-07
1.1920928955078125e-07
0.13759469985961914
0.3731820806860924
0.0
0.0
0.005449414253234863
0.10207533836364746
1.1920928955078125e-07
1.7881393432617188e-07
0.17662054300308228
0.14674317836761475
0.42338092625141144
0.2919727712869644
0.1631435751914978
0.023370087146759033
5.960464477539063e-08
0.0
2.980232238769531e-07
1.1920928955078125e-07
2.8312206268310547e-07
7.450580596923828e-08
1.1920928955078125e-07
5.960464477539063e-08
5.960464477539063e-08
1.4901161193847656e-08
1.4901161193847656e-08
4.470348358154297e-08
2.9802322387695312e-08
1.1920928955078125e-07
7.450580596923828e-08
2.5331974029541016e-07
1.4901161193847656e-08
1.4901161193847656e-08
0.017173901200294495
0.03674466907978058
0.200534850358963
0.44515156745910645
0.11054904758930206
0.04320091754198074
4.470348358154297e-08
4.470348358154297e-08
0.1373945027589798
0.4350540488958359
0.7054146230220795
0.2666194438934326
0.23034225404262543
0.14646832644939423
2.8312206268310547e-07
2.9802322387695312e-08
0.060912638902664185
0.19325241446495056
0.0
0.0
0.29268865287303925
0.02855539321899414
2.9802322387695312e-08
1.1920928955078125e-07
0.3773289918899536
0.1643066108226776
0.6871147900819778
0.25247718393802643
0.15807372331619263
0.1446746587753296
1.1920928955078125e-07
2.2351741790771484e-07
0.05451001226902008
0.22730302810668945
0.0
0.0
0.4321136325597763
0.032068416476249695
7.450580596923828e-08
1.9371509552001953e-07
0.1073119193315506
0.1630958467721939
0.23742957413196564
0.34283363819122314
0.054076001048088074
0.16883303225040436
1.4901161193847656e-08
1.4901161193847656e-08
4.470348358154297e-08
1.4901161193847656e-08
2.9802322387695312e-08
1.1920928955078125e-07
4.470348358154297e-08
1.043081283569336e-07
1.4901161193847656e-08
1.4901161193847656e-08
1.4901161193847656e-08
7.450580596923828e-08
1.1920928955078125e-07
2.9802322387695312e-08
2.8312206268310547e-07
4.470348358154297e-08
1.4901161193847656e-08
1.043081283569336e-07
0.2580310255289078
0.3091266602277756
0.19945353269577026
0.31918685138225555
0.2376432716846466
0.04194071143865585
1.9371509552001953e-07
4.470348358154297e-08
0.08474428951740265
0.11710397899150848
0.0
0.0
0.02415768802165985
0.28555844724178314
7.450580596923828e-08
1.1920928955078125e-07
0.1851428747177124
0.20822247862815857
0.0
0.0
0.2225172519683838
0.04539060592651367
1.1920928955078125e-07
2.9802322387695312e-08
0.41003379225730896
0.35241571068763733
0.0
0.0
0.33097967505455017
0.003987818956375122
2.9802322387695312e-08
4.470348358154297e-08
0.1188899427652359
0.10271277278661728
0.36024365574121475
0.5248032510280609
0.5144620984792709
0.0712025910615921
4.470348358154297e-08
4.470348358154297e-08
0.08817298710346222
0.22830529510974884
0.09417164325714111
0.2455320656299591
0.0732521265745163
0.15909217298030853
1.4901161193847656e-08
1.4901161193847656e-08
2.5331974029541016e-07
2.2351741790771484e-07
2.384185791015625e-07
2.9802322387695312e-08
4.470348358154297e-08
1.4901161193847656e-08
1.4901161193847656e-08
5.960464477539063e-08
5.960464477539063e-08
1.1920928955078125e-07
2.2351741790771484e-07
4.470348358154297e-08
1.1920928955078125e-07
5.960464477539063e-08
0.0
5.960464477539063e-08
0.03126746416091919
0.13484317064285278
0.16621233522891998
0.49988000094890594
0.05143941938877106
0.07403388619422913
1.7881393432617188e-07
1.1920928955078125e-07
0.2632486820220947
0.7485796809196472
0.0
0.0
0.2858336567878723
0.17705035209655762
1.1920928955078125e-07
7.450580596923828e-08
0.14430738985538483
0.012407645583152771
0.0
0.0
0.23311300575733185
0.04341872036457062
4.470348358154297e-08
2.8312206268310547e-07
0.2503726929426193
0.4361899644136429
0.0
0.0
0.4065936952829361
0.06026454269886017
4.470348358154297e-08
1.1920928955078125e-07
0.1172119677066803
0.03933590650558472
0.005696162581443787
0.09476496279239655
0.1254865527153015
0.03442978858947754
0.0
2.980232238769531e-07
0.1489221453666687
0.03557854890823364
0.026500388979911804
0.021607711911201477
0.179182767868042
0.06980949640274048
5.960464477539063e-08
5.960464477539063e-08
1.1920928955078125e-07
1.1920928955078125e-07
7.450580596923828e-08
4.470348358154297e-08
0.0
1.7881393432617188e-07
5.960464477539063e-08
0.0
0.0
1.7881393432617188e-07
1.9371509552001953e-07
4.470348358154297e-08
2.980232238769531e-07
0.0
0.0
1.1920928955078125e-07
0.09874165058135986
0.08335673809051514
0.14842192828655243
0.040542349219322205
0.25334399938583374
0.11763232946395874
1.1920928955078125e-07
1.7881393432617188e-07
0.26495224237442017
0.03982153534889221
0.0
0.0
0.23057109117507935
0.18922245502471924
5.960464477539063e-08
1.9371509552001953e-07
0.2496265321969986
0.09386180341243744
0.0
0.0
0.06344981491565704
0.10559619963169098
1.043081283569336e-07
4.470348358154297e-08
0.13216323032975197
0.12330473959445953
0.18152862787246704
0.04555734992027283
0.08731727302074432
0.15701924264431
1.4901161193847656e-08
5.960464477539063e-08
0.10362690687179565
0.011481761932373047
0.051038190722465515
0.04417841136455536
0.24092674255371094
0.04659491777420044
5.960464477539063e-08
0.0
0.10384666919708252
0.0899154543876648
0.007480248808860779
0.11930714547634125
0.15781575441360474
0.17596662044525146
1.1920928955078125e-07
0.0
0.0
5.960464477539063e-08
1.4901161193847656e-08
1.4901161193847656e-08
5.960464477539063e-08
1.1920928955078125e-07
1.1920928955078125e-07
0.0
0.0
0.0
1.4901161193847656e-08
1.4901161193847656e-08
0.0
0.0
0.0
0.0
0.0
2.980232238769531e-07
4.470348358154297e-08
1.9371509552001953e-07
1.7881393432617188e-07
0.0
0.0
0.0
5.960464477539063e-08
1.1920928955078125e-07
4.470348358154297e-08
2.2351741790771484e-07
1.1920928955078125e-07
5.960464477539063e-08
5.960464477539063e-08
1.4901161193847656e-08
4.470348358154297e-08
2.8312206268310547e-07
2.9802322387695312e-08
1.1920928955078125e-07
7.450580596923828e-08
1.4901161193847656e-08
1.4901161193847656e-08
1.4901161193847656e-08
2.5331974029541016e-07
7.450580596923828e-08
1.1920928955078125e-07
2.9802322387695312e-08
4.470348358154297e-08
1.4901161193847656e-08
1.4901161193847656e-08
5.960464477539063e-08
1.1920928955078125e-07
1.1920928955078125e-07
7.450580596923828e-08
4.470348358154297e-08
0.0
1.7881393432617188e-07
5.960464477539063e-08
0.0
1.1920928955078125e-07
5.960464477539063e-08
1.043081283569336e-07
1.4901161193847656e-08
5.960464477539063e-08
1.1920928955078125e-07
1.1920928955078125e-07
0.0
0.0
5.960464477539063e-08
1.4901161193847656e-08
1.4901161193847656e-08
5.960464477539063e-08
1.1920928955078125e-07
1.1920928955078125e-07
SCALARS is_valid float 1
LOOKUP_TABLE default
1.0
1.0
1.0
1.0
1.0
1.0
1.0
1.0
1.0
1.0
1.0
1.0
1.0
1.0
1.0
1.0
1.0
1.0
1.0
1.0
1.0
1.0
1.0
1.0
1.0
1.0
1.0
1.0
1.0
1.0
1.0
1.0
1.0
1.0
1.0
1.0
1.0
1.0
1.0
1.0
1.0
1.0
1.0
1.0
1.0
1.0
1.0
1.0
1.0
1.0
1.0
1.0
1.0
1.0
1.0
1.0
1.0
1.0
1.0
1.0
1.0
1.0
1.0
1.0
1.0
1.0
1.0
1.0
1.0
1.0
1.0
1.0
1.0
1.0
1.0
1.0
1.0
1.0
1.0
1.0
1.0
1.0
1.0
1.0
1.0
1.0
1.0
1.0
1.0
1.0