# vtk DataFile Version 3.0
Zombie mixed Neumann point cloud
ASCII
DATASET POLYDATA
POINTS 91 float
-0.6596972942352295 0.8910518884658813 -0.30333566665649414
0.7575875520706177 -0.12066405266523361 -0.7035435438156128
0.5974235534667969 -0.788273811340332 1.0951755046844482
0.998964786529541 0.13117805123329163 -0.0831940546631813
-0.7417767643928528 0.2248968780040741 -0.16252897679805756
-0.9091472029685974 0.753723680973053 -0.9162097573280334
-1.0707875490188599 -0.5128036141395569 -1.099927306175232
0.7115961909294128 0.9328017234802246 0.1937328428030014
0.8283852338790894 -0.7839478850364685 -0.06914067268371582
0.7784563899040222 0.7398754954338074 0.7339404821395874
-0.4642740488052368 1.0847232341766357 0.4517281651496887
-0.6521300077438354 0.21705704927444458 0.034916263073682785
0.4626941382884979 0.27601179480552673 -1.0220332145690918
-0.682064414024353 0.16739705204963684 0.05461305007338524
0.3140491545200348 0.0111618060618639 -0.9707170724868774
0.09825269877910614 0.8689953088760376 -0.3118877410888672
-0.9542902112007141 0.465786874294281 -0.6497268080711365
1.095146656036377 -0.2021600902080536 -0.917863667011261
-0.6876940131187439 -0.6924411654472351 0.1863125115633011
-0.25966039299964905 -0.9053585529327393 -0.8380503058433533
0.03260670602321625 -0.7847458720207214 -0.4335295557975769
-0.31863224506378174 -0.2102651745080948 -0.9189534187316895
-0.624708890914917 -0.15649913251399994 0.9876670837402344
0.9113402366638184 -0.51179438829422 0.007656418718397617
0.36043936014175415 -0.808712363243103 0.32652518153190613
1.089882493019104 0.37021133303642273 -0.21738897264003754
-0.9864264130592346 0.9868671894073486 0.35059064626693726
0.6154468655586243 -0.6136801838874817 0.5795626640319824
-0.6228514909744263 0.16224108636379242 -0.2921888530254364
-0.973013162612915 -0.8639322519302368 0.8164653778076172
-0.6221503019332886 0.10080892592668533 -0.7655467987060547
0.1395980715751648 0.7221135497093201 0.7833094000816345
-0.6869515180587769 0.15269893407821655 0.16364599764347076
-0.33410772681236267 0.3590547740459442 -0.35397401452064514
0.42878657579421997 -1.012044906616211 0.6659331917762756
0.7470608949661255 0.8725191950798035 0.24636104702949524
0.31163421273231506 -0.8937953114509583 0.905988872051239
-0.4202122688293457 0.26051586866378784 -0.42972612380981445
0.24658848345279694 0.9353106021881104 0.966346263885498
0.4856395423412323 0.3127565085887909 0.15506726503372192
0.6771429777145386 0.6707468032836914 -1.0226595401763916
0.11951297521591187 -0.7397481799125671 -1.0599464178085327
0.8708589673042297 0.2134418487548828 -0.7113040685653687
-1.058240532875061 -0.22946353256702423 -0.31041908264160156
0.4518754184246063 -0.8986920714378357 -0.12122511118650436
0.8227063417434692 0.15437138080596924 -0.1772887110710144
-0.0363595075905323 0.6921161413192749 0.6000056266784668
-0.04117033630609512 -0.6144019961357117 0.2267390340566635
-0.9024172425270081 0.005284152925014496 -0.12897351384162903
0.8491952419281006 -0.2589491605758667 0.06697248667478561
0.8692779541015625 -0.30343785881996155 0.32193076610565186
-1.0111322402954102 -0.06714633852243423 -0.0278729610145092
-0.25165626406669617 0.37611886858940125 -0.665546178817749
-0.4696560204029083 0.5015245079994202 0.2665374279022217
-0.803816020488739 -0.08538587391376495 -0.03730471059679985
0.7926979064941406 0.20373493432998657 0.27034714818000793
-0.5686670541763306 -0.870788037776947 -0.4080002009868622
-0.5756781101226807 -0.646914005279541 -0.05330563709139824
0.04198974370956421 -0.6270470023155212 -0.3838268518447876
0.1484319120645523 -0.7547793984413147 0.3025456666946411
0.6236308813095093 0.556435763835907 0.7035858035087585
0.2708682119846344 -0.174669086933136 -1.0311164855957031
0.8450531959533691 0.7797946333885193 0.7854923605918884
0.28919535875320435 -0.8331652879714966 -0.39369139075279236
-0.671519935131073 0.21783752739429474 0.889776349067688
1.0695348978042603 0.4940280318260193 0.1344824582338333
-0.9465924501419067 1.0875742435455322 -0.8812798857688904
-0.8201882243156433 0.7817567586898804 0.6270414590835571
0.6028259992599487 -0.9177391529083252 -0.6575233340263367
-0.7394232749938965 0.7612720727920532 0.7037699818611145
0.20142965018749237 -0.6406868100166321 -0.6864356398582458
-0.6714044809341431 0.8038728833198547 -0.5396222472190857
-0.6399648189544678 0.9338188171386719 0.04812989756464958
0.22033749520778656 -0.7193241119384766 0.5476784110069275
0.7523025274276733 0.7963607311248779 0.939108669757843
-0.23475347459316254 0.002902714302763343 -0.9483413100242615
-0.796744704246521 -1.0882402658462524 0.2394973337650299
-1.046593189239502 -1.0791558027267456 0.1735832393169403
-0.8399350643157959 0.7966421842575073 -0.2829473912715912
0.2360338419675827 0.8401694297790527 -0.731531023979187
-0.5282706022262573 0.5016127228736877 0.36226686835289
0.4061626195907593 0.9940233826637268 0.2164023071527481
0.9843600988388062 -0.8895124197006226 -0.13634808361530304
0.7606995701789856 0.9795093536376953 -0.7686585783958435
1.0588299036026 -0.33533725142478943 0.06587754935026169
-0.7912101745605469 -0.4335038363933563 0.1836705207824707
0.8915683031082153 -0.9471817016601562 0.3472835421562195
-0.8144690990447998 -1.0523556470870972 1.0030847787857056
0.9882246851921082 -0.553982138633728 -1.0175303220748901
-0.348865270614624 0.5976141691207886 0.5695132613182068
0.5813174843788147 0.7522855401039124 -0.8554500937461853
VERTICES 91 182
1 0
1 1
1 2
1 3
1 4
1 5
1 6
1 7
1 8
1 9
1 10
1 11
1 12
1 13
1 14
1 15
1 16
1 17
1 18
1 19
1 20
1 21
1 22
1 23
1 24
1 25
1 26
1 27
1 28
1 29
1 30
1 31
1 32
1 33
1 34
1 35
1 36
1 37
1 38
1 39
1 40
1 41
1 42
1 43
1 44
1 45
1 46
1 47
1 48
1 49
1 50
1 51
1 52
1 53
1 54
1 55
1 56
1 57
1 58
1 59
1 60
1 61
1 62
1 63
1 64
1 65
1 66
1 67
1 68
1 69
1 70
1 71
1 72
1 73
1 74
1 75
1 76
1 77
1 78
1 79
1 80
1 81
1 82
1 83
1 84
1 85
1 86
1 87
1 88
1 89
1 90
POINT_DATA 91
SCALARS solution float 1
LOOKUP_TABLE default
0.06906741112470627
0.005826491862535477
0.8874608874320984
1.3370517492294312
-0.6962936520576477
-1.0128049850463867
-2.683591365814209
1.900895357131958
-0.16807414591312408
2.1646814346313477
1.1920936107635498
-0.5254956483840942
-0.2001449316740036
-0.663555920124054
-0.5432322025299072
0.7044258713722229
-1.2948228120803833
-0.02798084355890751
-1.3180029392242432
-2.0286741256713867
-1.2182387113571167
-1.3099772930145264
0.12593218684196472
0.2629547417163849
0.13902391493320465
1.2271690368652344
0.3654026687145233
0.8105420470237732
-1.2483233213424683
-1.1456795930862427
-1.1743083000183105
1.596490740776062
-0.23619891703128815
-0.5920177698135376
-0.05756532400846481
1.7518194913864136
0.20362217724323273
-0.7600268125534058
2.2299962043762207
0.5075979828834534
0.21354956924915314
-1.6663180589675903
0.3148384988307953
-1.5904866456985474
-0.6239732503890991
0.6529858708381653
1.107043743133545
-0.41594210267066956
-0.9293439388275146
0.44417524337768555
0.6673863530158997
-1.1927632093429565
-0.9346632957458496
0.4324471056461334
-0.9139800667762756
1.2130552530288696
-1.955768346786499
-1.3922141790390015
-1.0242735147476196
-0.08689764887094498
1.9708226919174194
-0.9508607387542725
2.408053398132324
-0.8877589106559753
0.4077846109867096
1.7036585807800293
-0.7351047992706299
0.5680229663848877
-1.023181438446045
0.541571319103241
-0.8724597692489624
-0.4944915771484375
0.37686359882354736
-0.28701770305633545
2.5793635845184326
-1.1421194076538086
-1.6675103902816772
-1.9272478818893433
-0.3204044997692108
0.407417893409729
0.45415204763412476
1.7599555253982544
-0.006380319595336914
0.9825829267501831
0.7598060965538025
-0.8477947115898132
0.3145689368247986
-0.8469594717025757
-0.5593688488006592
0.7351338863372803
0.47697511315345764
SCALARS exact float 1
LOOKUP_TABLE default
-0.07198107242584229
-0.06662004441022873
0.9043252468109131
1.0469487830996513
-0.6794088631868362
-1.0716332793235779
-2.6835184693336487
1.8381307572126389
-0.02470332384109497
2.252272367477417
1.0721773505210876
-0.4001566953957081
-0.28332728147506714
-0.46005431190133095
-0.6455061119049788
0.6553602665662766
-1.1382301449775696
-0.024877101182937622
-1.193822667002678
-2.0030692517757416
-1.185668721795082
-1.447850838303566
0.20645906031131744
0.407202267087996
-0.12174782156944275
1.2427048534154892
0.35103142261505127
0.581329345703125
-0.7527992576360703
-1.0204800367355347
-1.286888174712658
1.6450210213661194
-0.37060658633708954
-0.3290269672870636
0.08267486095428467
1.8659411370754242
0.3238277733325958
-0.5894225239753723
2.1482453495264053
0.9534633159637451
0.3252302408218384
-1.680181622505188
0.3729967474937439
-1.5981231480836868
-0.5680417641997337
0.7997890114784241
1.2557622604072094
-0.4288332983851433
-1.0261066034436226
0.6572185680270195
0.8877708613872528
-1.1061515398323536
-0.541083574295044
0.2984059154987335
-0.9265066049993038
1.2667799890041351
-1.8474552929401398
-1.27589775249362
-0.9688841104507446
-0.3038018196821213
1.8836524486541748
-0.9349173605442047
2.410340189933777
-0.9376613199710846
0.43609394133090973
1.6980453878641129
-0.7402980923652649
0.5886099934577942
-0.9724364876747131
0.7256187796592712
-1.1256927996873856
-0.407153844833374
0.3419838957488537
0.04869179427623749
2.4877719283103943
-1.1801920703146607
-1.6454876363277435
-1.9521657526493073
-0.32624027132987976
0.3446722477674484
0.33560898900032043
1.6165883094072342
-0.041500404477119446
0.9715503454208374
0.7893702015280724
-1.0410434901714325
0.29167014360427856
-0.8637399673461914
-0.58328777551651
0.8182621598243713
0.47815293073654175
SCALARS abs_error float 1
LOOKUP_TABLE default
0.14104848355054855
0.0724465362727642
0.016864359378814697
0.2901029661297798
0.016884788870811462
0.05882829427719116
7.289648056030273e-05
0.06276459991931915
0.1433708220720291
0.08759093284606934
0.11991626024246216
0.12533895298838615
0.08318234980106354
0.203501608222723
0.10227390937507153
0.04906560480594635
0.15659266710281372
0.0031037423759698868
0.12418027222156525
0.02560487389564514
0.03256998956203461
0.1378735452890396
0.08052687346935272
0.14424752537161112
0.2607717365026474
0.015535816550254822
0.014371246099472046
0.2292127013206482
0.495524063706398
0.125199556350708
0.11257987469434738
0.04853028059005737
0.1344076693058014
0.262990802526474
0.14024018496274948
0.11412164568901062
0.1202055960893631
0.17060428857803345
0.08175085484981537
0.44586533308029175
0.11168067157268524
0.013863563537597656
0.05815824866294861
0.007636502385139465
0.05593148618936539
0.1468031406402588
0.14871851727366447
0.012891195714473724
0.09676266461610794
0.21304332464933395
0.22038450837135315
0.08661166951060295
0.39357972145080566
0.1340411901473999
0.012526538223028183
0.0537247359752655
0.10831305384635925
0.11631642654538155
0.055389404296875
0.2169041708111763
0.08717024326324463
0.01594337821006775
0.0022867918014526367
0.04990240931510925
0.028309330344200134
0.005613192915916443
0.00519329309463501
0.020587027072906494
0.05074495077133179
0.18404746055603027
0.25323303043842316
0.08733773231506348
0.03487970307469368
0.33570949733257294
0.09159165620803833
0.038072662660852075
0.022022753953933716
0.02491787075996399
0.005835771560668945
0.06274564564228058
0.11854305863380432
0.1433672159910202
0.03512008488178253
0.011032581329345703
0.029564104974269867
0.19324877858161926
0.02289879322052002
0.016780495643615723
0.02391892671585083
0.08312827348709106
0.0011778175830841064
SCALARS mean_steps float 1
LOOKUP_TABLE default
309.96484375
255.95703125
24.01953125
174.59765625
659.5
54.62890625
0.0
214.9296875
207.0390625
144.140625
61.6171875
698.1015625
168.1953125
707.046875
223.546875
1606.890625
167.25390625
17.51171875
469.3515625
112.33984375
414.546875
246.98828125
205.73046875
254.57421875
682.8828125
19.32421875
32.3671875
698.6796875
762.421875
57.21875
414.04296875
437.59765625
707.22265625
1608.41015625
197.9140625
199.65625
246.8671875
1219.296875
66.1796875
1054.80859375
127.2578125
57.7421875
130.21875
62.984375
343.05078125
415.04296875
533.7578125
1456.8828125
310.8203125
462.078125
452.203125
137.34375
1181.66015625
762.47265625
627.23046875
471.3203125
270.171875
548.70703125
738.23828125
991.47265625
281.015625
103.7890625
72.515625
399.28515625
270.66796875
45.6796875
18.2265625
112.0078125
136.22265625
121.8515625
366.734375
279.92578125
255.515625
1030.76953125
66.125
288.16015625
27.49609375
26.12890625
303.328125
460.19921875
539.5625
190.8359375
32.5546875
105.0703125
79.5390625
539.20703125
105.625
44.3671875
38.1796875
588.46875
168.375
SCALARS std_error float 1
LOOKUP_TABLE default
0.12433142230494099
0.12565980314104175
0.024851251060575424
0.09925724412949774
0.20052399054844977
0.04892022506778915
0.0
0.10176256538464454
0.13362235103315317
0.09824657354555834
0.06079913280481427
0.18204271255880156
0.063362609843027
0.1868122022587486
0.17007815091610853
0.3017439977946491
0.07992290945492993
0.004489143254554526
0.18147212591064416
0.12147048444542545
0.19748245257880023
0.10227020074211349
0.09038814142321652
0.12089335873093865
0.23936104396395344
0.014824684641324776
0.022016323593975425
0.17783094235065378
0.25969389591993763
0.047997063697532434
0.17111211225312584
0.15853918550979354
0.20745593723426048
0.3350459510866269
0.12868516921646375
0.11248720099572303
0.10383047499483687
0.28462124632486585
0.05211998300727543
0.27051662609739385
0.08284350289455789
0.05188297262527509
0.08986101295644594
0.02978866099234087
0.17240804679878816
0.1512856356062521
0.17309236186990015
0.28975045329775173
0.11141149427608842
0.16927375179611426
0.17727034641936773
0.05853207242770284
0.29148625714980875
0.17641976735517734
0.1982108312152976
0.1478396220657985
0.15884862301226355
0.20214257715548595
0.23930636322061447
0.23070654481910266
0.15833417739036681
0.09826252614923432
0.041635295518367296
0.15708961208866637
0.10461342543067197
0.01335908725286422
0.005761941429660053
0.07702586843386558
0.0932847638642481
0.13806329080140187
0.14158646075518228
0.11814962251564969
0.13252299676016882
0.48240385137704117
0.06148640146090866
0.12967572876926042
0.014747652190952497
0.03325590503696437
0.11490612233906726
0.157815824133734
0.17376178911576992
0.07822556579550724
0.043128908576702686
0.04037777751707844
0.08824815615106953
0.16748031860878668
0.04712445718290736
0.03345960020690232
0.041796935885821764
0.19585783167726667
0.07974526378041795
SCALARS samples_used float 1
LOOKUP_TABLE default
256.0
256.0
256.0
256.0
256.0
256.0
1.0
256.0
256.0
256.0
256.0
256.0
256.0
256.0
256.0
256.0
256.0
256.0
256.0
256.0
256.0
256.0
256.0
256.0
256.0
256.0
256.0
256.0
256.0
256.0
256.0
256.0
256.0
256.0
256.0
256.0
256.0
256.0
256.0
256.0
256.0
256.0
256.0
256.0
256.0
256.0
256.0
256.0
256.0
256.0
256.0
256.0
256.0
256.0
256.0
256.0
256.0
256.0
256.0
256.0
256.0
256.0
256.0
256.0
256.0
256.0
256.0
256.0
256.0
256.0
256.0
256.0
256.0
256.0
256.0
256.0
256.0
256.0
256.0
256.0
256.0
256.0
256.0
256.0
256.0
256.0
256.0
256.0
256.0
256.0
256.0
