# vtk DataFile Version 3.0
WoSt boundary bias detector
ASCII
DATASET STRUCTURED_POINTS
DIMENSIONS 16 16 16
ORIGIN -1.1 -1.1 -1.1
SPACING 0.14666668 0.14666668 0.14666668
POINT_DATA 4096
SCALARS solution_epsilon float 1
LOOKUP_TABLE default
-3.3000002
-3.1533332
-3.0066667
-2.8600001
-2.7133334
-2.5666666
-2.4200001
-2.2733333
-2.1266665
-1.98
-1.8333334
-1.6866666
-1.54
-1.3933333
-1.2466666
-1.1
-3.1533332
-3.0066667
-2.8600001
-2.7133334
-2.5666666
-2.4200001
-2.2733335
-2.1266665
-1.98
-1.8333334
-1.6866667
-1.54
-1.3933333
-1.2466667
-1.0999999
-0.95333338
-3.0066667
-2.8600001
-2.7133334
-2.5666666
-2.4200001
-2.2733335
-2.1266665
-1.98
-1.8333333
-1.6866667
-1.54
-1.3933332
-1.2466667
-1.0999999
-0.9533332
-0.80666667
-2.8600001
-2.7133334
-2.5666666
-2.4200001
-2.2733333
-2.1266665
-1.98
-1.8333333
-1.6866666
-1.54
-1.3933333
-1.2466666
-1.0999999
-0.95333326
-0.80666649
-0.65999997
-2.7133334
-2.5666666
-2.4200001
-2.2733333
-2.1266665
-1.98
-1.8333333
-1.6866666
-1.54
-1.3933333
-1.2466667
-1.0999999
-0.95333326
-0.80666661
-0.65999985
-0.51333332
-2.5666666
-2.4200001
-2.2733335
-2.1266665
-1.98
-1.8333334
-1.6866667
-1.54
-1.3933333
-1.2466667
-1.1
-0.95333326
-0.80666661
-0.65999997
-0.5133332
-0.36666667
-2.4200001
-2.2733335
-2.1266665
-1.98
-1.8333333
-1.6866667
-1.54
-1.3933332
-1.2466667
-1.0999999
-0.95333332
-0.80666655
-0.65999991
-0.51333326
-0.3666665
-0.21999997
-2.2733333
-2.1266665
-1.98
-1.8333333
-1.6866666
-1.54
-1.3933332
-1.2466666
-1.0999999
-0.95333326
-0.80666661
-0.65999985
-0.5133332
-0.36666656
-0.21999979
-0.073333263
-2.1266665
-1.98
-1.8333333
-1.6866666
-1.54
-1.3933333
-1.2466667
-1.0999999
-0.95333326
-0.80666661
-0.65999997
-0.5133332
-0.36666656
-0.21999991
-0.073333144
0.073333383
-1.98
-1.8333334
-1.6866667
-1.54
-1.3933333
-1.2466667
-1.0999999
-0.95333326
-0.80666661
-0.65999997
-0.51333332
-0.36666656
-0.21999991
-0.073333263
0.073333502
0.22000003
-1.8333334
-1.6866667
-1.54
-1.3933333
-1.2466667
-1.1
-0.95333332
-0.80666661
-0.65999997
-0.51333332
-0.36666667
-0.21999991
-0.073333263
0.073333383
0.22000015
0.36666667
-1.6866666
-1.54
-1.3933332
-1.2466666
-1.0999999
-0.95333326
-0.80666655
-0.65999985
-0.5133332
-0.36666656
-0.21999991
-0.073333144
0.073333502
0.22000015
0.36666691
0.51333344
-1.54
-1.3933333
-1.2466667
-1.0999999
-0.95333326
-0.80666661
-0.65999991
-0.5133332
-0.36666656
-0.21999991
-0.073333263
0.073333502
0.22000015
0.36666679
0.51333356
0.66000009
-1.3933333
-1.2466667
-1.0999999
-0.95333326
-0.80666661
-0.65999997
-0.51333326
-0.36666656
-0.21999991
-0.073333263
0.073333383
0.22000015
0.36666679
0.51333344
0.66000021
0.80666673
-1.2466666
-1.0999999
-0.9533332
-0.80666649
-0.65999985
-0.5133332
-0.3666665
-0.21999979
-0.073333144
0.073333502
0.22000015
0.36666691
0.51333356
0.66000021
0.80666697
0.9533335
-1.1
-0.95333338
-0.80666667
-0.65999997
-0.51333332
-0.36666667
-0.21999997
-0.073333263
0.073333383
0.22000003
0.36666667
0.51333344
0.66000009
0.80666673
0.9533335
1.1
-3.1533334
-3.0066667
-2.8600001
-2.7133334
-2.5666666
-2.4200001
-2.2733333
-2.1266665
-1.98
-1.8333334
-1.6866667
-1.54
-1.3933333
-1.2466667
-1.0999999
-0.95333338
-3.0066667
-2.8683906
-2.7362692
-2.6000421
-2.4236932
-2.2867875
-2.144978
-2.0465522
-1.8701532
-1.7353231
-1.5309922
-1.4393688
-1.2776439
-1.08058
-0.96519011
-0.80666673
-2.8600001
-2.6842809
-2.6338766
-2.4756961
-2.3654928
-2.1744506
-2.0500102
-1.9552089
-1.7870952
-1.6022192
-1.4969549
-1.3071225
-1.1405336
-0.99356025
-0.85377455
-0.66000003
-2.7133334
-2.612144
-2.4438505
-2.3392892
-2.242173
-2.0501368
-2.0222249
-1.8306065
-1.6986454
-1.5691687
-1.3082795
-1.23526
-1.0109202
-0.83812565
-0.63877922
-0.51333332
-2.5666666
-2.5174611
-2.3528666
-2.2057378
-2.1050436
-2.0044651
-1.8191764
-1.7295929
-1.5989017
-1.2618666
-1.1861937
-0.97317523
-0.81484729
-0.69823563
-0.5156275
-0.36666667
-2.4200001
-2.3564944
-2.2361388
-2.1521678
-2.0079048
-1.8533037
-1.7156796
-1.614772
-1.4401884
-1.2589591
-1.1642065
-0.91258073
-0.70017874
-0.54973567
-0.34977314
-0.22000003
-2.2733333
-2.1206481
-2.1254504
-1.983476
-1.7824761
-1.7610323
-1.6638573
-1.4754211
-1.2483258
-1.141453
-0.97645169
-0.74985534
-0.50885034
-0.4171178
-0.23857296
-0.073333323
-2.1266665
-2.0316856
-1.8008161
-1.8470542
-1.8704537
-1.7529347
-1.4986188
-1.3521025
-1.2146373
-1.0239697
-0.77354544
-0.55231875
-0.3505711
-0.20114483
-0.05478346
0.073333383
-1.98
-1.9249722
-1.8529235
-1.667407
-1.6367126
-1.6077017
-1.4468876
-1.4168063
-1.2366276
-0.80582815
-0.67595434
-0.39019036
-0.29001844
-0.12199786
0.033696305
0.22000003
-1.8333334
-1.7395942
-1.6708336
-1.5465051
-1.4898261
-1.4412842
-1.4149232
-1.261067
-0.88107979
-0.74524456
-0.5868147
-0.325023
-0.043147013
0.092812061
0.26608443
0.36666667
-1.6866667
-1.6398041
-1.5427676
-1.3880707
-1.3325435
-1.2290931
-1.0311657
-0.97974098
-0.69779676
-0.57426065
-0.27626747
-0.12551413
0.06439288
0.24151658
0.32602111
0.51333332
-1.54
-1.4358259
-1.4406453
-1.2197392
-1.1359811
-1.1744663
-0.81931412
-0.65403759
-0.53140014
-0.28773966
-0.044856176
0.19454508
0.32184789
0.4510203
0.51688218
0.66000009
-1.3933333
-1.3182949
-1.1032138
-1.007156
-0.97175431
-0.92276108
-0.68935299
-0.50556016
-0.30558959
-0.27468055
0.063419431
0.2650893
0.4556914
0.62803257
0.66172367
0.80666673
-1.2466667
-1.0994918
-0.97470015
-0.86252922
-0.77537125
-0.68656492
-0.50468421
-0.36258799
-0.15572147
0.15400118
0.19821012
0.35459089
0.46283236
0.66988832
0.8356865
0.95333338
-1.0999999
-0.98986816
-0.8357954
-0.66940522
-0.60189706
-0.3813166
-0.23799443
-0.16570283
0.11876298
0.21750735
0.36762404
0.56488931
0.66027927
0.83023977
0.9535147
1.1000001
-0.95333338
-0.80666673
-0.66000003
-0.51333332
-0.36666667
-0.22000003
-0.073333323
0.073333383
0.22000003
0.36666667
0.51333332
0.66000009
0.80666673
0.95333338
1.1000001
1.2466667
-3.0066667
-2.8599999
-2.7133334
-2.5666666
-2.4200001
-2.2733333
-2.1266665
-1.98
-1.8333333
-1.6866667
-1.54
-1.3933332
-1.2466667
-1.0999999
-0.9533332
-0.80666667
-2.8599999
-2.7262323
-2.629323
-2.4491198
-2.3505647
-2.1666303
-2.0199544
-1.9767349
-1.7613528
-1.6123619
-1.4004432
-1.3138518
-1.117479
-0.9845829
-0.87231183
-0.66000003
-2.7133334
-2.5651972
-2.4517446
-2.3890362
-2.3119509
-2.1580391
-1.9391161
-1.7655904
-1.6633544
-1.4375594
-1.4107357
-1.1361465
-0.97828001
-0.84483469
-0.68683165
-0.51333332
-2.5666666
-2.5225906
-2.2968864
-2.2540243
-2.1674972
-2.1670594
-1.8734708
-1.841139
-1.6340728
-1.5733875
-1.2125515
-1.0490804
-0.8260445
-0.65583634
-0.50670356
-0.36666662
-2.4200001
-2.3367622
-2.2880936
-2.1508486
-2.0543349
-1.9674821
-1.8563136
-1.7872447
-1.4970367
-1.2491837
-1.0366282
-0.83993095
-0.59463739
-0.4778735
-0.377276
-0.21999997
-2.2733333
-2.2391093
-2.1692121
-2.1109889
-2.0648742
-1.886346
-1.7021693
-1.8213565
-1.4997056
-1.2959816
-0.98761678
-0.9177323
-0.69025499
-0.47593272
-0.2851364
-0.073333323
-2.1266665
-2.0512362
-1.9240212
-2.0400977
-2.003998
-1.8242924
-1.7277895
-1.7781383
-1.5996017
-1.2834811
-0.80982429
-0.79633594
-0.24802956
-0.36927155
0.01486936
0.073333383
-1.98
-1.9385508
-1.914873
-1.8947197
-1.8269438
-1.9491624
-1.8258221
-1.8256891
-1.3928056
-1.1824764
-0.66712075
-0.52272218
-0.21736799
-0.06634438
0.018017005
0.22000009
-1.8333333
-1.7092718
-1.8212566
-1.7810766
-1.8180115
-1.8489726
-2.0642071
-1.5954394
-1.4502667
-0.96908003
-0.68899685
-0.36865348
-0.016472561
0.16240303
0.34428486
0.36666673
-1.6866667
-1.6188779
-1.5323229
-1.597134
-1.5994563
-1.6800181
-1.7389691
-1.4169772
-1.4258943
-0.95443702
-0.40744933
-0.067170076
0.12740801
0.24365842
0.4117482
0.51333338
-1.54
-1.456434
-1.4341953
-1.3705156
-1.4613583
-1.4883029
-1.4943254
-1.2015502
-0.82715654
-0.26664558
0.0056368667
-0.023948492
0.20433798
0.5346179
0.44288132
0.66000003
-1.3933332
-1.2952638
-1.265426
-1.1032625
-1.3385422
-1.1312021
-0.9516024
-0.81414235
-0.42739931
-0.0070969956
0.19301079
0.23953314
0.52422416
0.50671828
0.67231745
0.80666679
-1.2466667
-1.0960206
-1.1250416
-1.0188169
-0.80901527
-0.81056082
-0.6137138
-0.45208865
-0.24161787
0.062840976
0.2233687
0.47458267
0.57362115
0.66204715
0.7962901
0.95333344
-1.0999999
-1.0804687
-0.93780732
-0.74430668
-0.75672603
-0.55944598
-0.38193232
-0.23001806
-0.064981237
0.17411779
0.41551393
0.43300429
0.67335403
0.79566181
1.0708309
1.1000001
-0.9533332
-0.83050227
-0.75033832
-0.63798082
-0.49946988
-0.25785062
-0.18315706
0.13149393
0.28349009
0.37347126
0.45489976
0.62306857
0.88270086
0.9751333
1.1201986
1.2466669
-0.80666667
-0.66000003
-0.51333332
-0.36666662
-0.21999997
-0.073333323
0.073333383
0.22000009
0.36666673
0.51333338
0.66000003
0.80666679
0.95333344
1.1000001
1.2466669
1.3933334
-2.8600001
-2.7133331
-2.5666666
-2.4200001
-2.2733333
-2.1266665
-1.9799999
-1.8333333
-1.6866666
-1.54
-1.3933333
-1.2466666
-1.0999999
-0.95333326
-0.80666649
-0.65999997
-2.7133331
-2.5762365
-2.4683554
-2.3645031
-2.2321556
-2.0759861
-1.8817095
-1.8481702
-1.7171408
-1.4320214
-1.3097472
-1.1891738
-1.0121785
-0.8531847
-0.69816411
-0.51333332
-2.5666666
-2.5295255
-2.3896856
-2.2664738
-2.1368327
-2.0352013
-1.9100683
-1.7787102
-1.5990144
-1.4233273
-1.2874725
-1.2313453
-0.97089952
-0.68329442
-0.49414968
-0.36666662
-2.4200001
-2.34411
-2.2450647
-2.1771359
-2.1661992
-2.013236
-1.9099416
-1.6985805
-1.6785207
-1.3895302
-1.1492262
-0.97803539
-0.90610278
-0.4521592
-0.36654636
-0.21999991
-2.2733333
-2.1923151
-2.218683
-2.2118981
-2.1853046
-2.1061971
-2.0026286
-1.8620956
-1.6460226
-1.4951473
-1.0592154
-0.86555833
-0.67243731
-0.34834495
-0.22082949
-0.073333263
-2.1266665
-2.1370823
-2.0847018
-1.9296356
-2.0266583
-2.0549047
-1.8620081
-1.8943615
-1.2780875
-1.2469791
-0.98477048
-0.51740021
-0.45689613
-0.23860931
-0.14582698
0.073333383
-1.9799999
-2.0007052
-1.9832422
-2.0562906
-2.044749
-1.9577657
-1.9928209
-1.7353516
-1.50883
-1.1801438
-0.63151962
-0.46378559
-0.27073535
0.012178195
0.14135814
0.22000009
-1.8333333
-1.893243
-1.7901483
-1.7284974
-1.9428567
-2.2176797
-1.9205071
-1.9980808
-1.7136101
-1.0829699
-0.45377764
-0.33280849
-0.23059811
0.24641587
0.29047158
0.36666679
-1.6866666
-1.6721243
-1.6007357
-1.8066803
-1.897019
-2.0656953
-2.4862959
-2.2612348
-2.1474717
-1.2544307
-0.45951316
0.0060181515
-0.068014346
0.39101571
0.38903263
0.51333344
-1.54
-1.5323917
-1.6320766
-1.6514626
-1.9535595
-2.1832018
-3.0113807
-2.7263041
-2.3863826
-1.7137641
-0.30096167
0.21469527
0.45796901
0.64309263
0.4975785
0.66000009
-1.3933333
-1.4150921
-1.3057933
-1.6939067
-1.6377861
-1.8482699
-1.5056223
-0.98026884
-0.64315474
0.064230576
0.37364268
0.41170487
0.49586111
0.6293065
0.76378495
0.80666673
-1.2466666
-1.2170218
-1.236356
-1.3069694
-1.1736777
-1.1921161
-0.99136829
-0.67173022
-0.24507536
0.23269443
0.31217474
0.55916584
0.65955913
0.74353832
0.92112017
0.9533335
-1.0999999
-1.0255021
-0.84344947
-0.97789609
-0.95195514
-0.85119468
-0.8800897
-0.57367873
-0.20979036
0.16297121
0.50407344
0.78397328
0.80998957
0.91804433
0.97399586
1.1000001
-0.95333326
-0.92101061
-0.8073414
-0.67700595
-0.86710602
-0.47967222
-0.38166648
-0.20920476
0.075545266
0.40927044
0.59822142
0.81953532
0.89452046
1.045241
1.1132272
1.2466668
-0.80666649
-0.71931505
-0.60911566
-0.45020235
-0.37734094
-0.23389968
-0.015315161
0.12375619
0.39676246
0.57357693
0.6913144
0.89054388
0.97972345
1.1804945
1.3302833
1.3933336
-0.65999997
-0.51333332
-0.36666662
-0.21999991
-0.073333263
0.073333383
0.22000009
0.36666679
0.51333344
0.66000009
0.80666673
0.9533335
1.1000001
1.2466668
1.3933336
1.5400001
-2.7133334
-2.5666666
-2.4200001
-2.2733333
-2.1266665
-1.98
-1.8333333
-1.6866666
-1.54
-1.3933333
-1.2466667
-1.0999999
-0.95333326
-0.80666661
-0.65999985
-0.51333332
-2.5666666
-2.4389315
-2.3592894
-2.2599456
-2.0683823
-1.9262887
-1.9069971
-1.8017229
-1.5302252
-1.3173976
-1.1443453
-1.0544766
-0.85442722
-0.59152114
-0.54372728
-0.36666667
-2.4200001
-2.3309329
-2.2305551
-2.3017104
-2.118495
-2.037709
-1.9212234
-1.7882453
-1.5817337
-1.4152173
-1.3113782
-1.0916134
-0.74151987
-0.64766669
-0.35456449
-0.21999997
-2.2733333
-2.2444036
-2.1443319
-2.1046124
-2.1394095
-1.876348
-1.9394884
-1.7216717
-1.5908257
-1.3553008
-1.2042075
-0.74266994
-0.48649406
-0.34297606
-0.18077888
-0.073333263
-2.1266665
-2.126658
-2.159199
-2.1067913
-2.0124547
-2.1112659
-1.904314
-1.9669557
-1.7150548
-1.3284349
-1.0120175
-0.53040755
-0.5013603
-0.32364187
-0.13788079
0.073333383
-1.98
-2.0751176
-1.9890257
-2.0601215
-2.0159233
-2.2546237
-2.0944974
-1.7567272
-1.5980266
-1.2077074
-0.78139532
-0.5199278
-0.37729821
0.0022838907
0.11778721
0.22000003
-1.8333333
-1.8427322
-1.8209623
-1.9618473
-1.9418148
-2.1070025
-1.9915787
-1.8957801
-1.6092128
-1.2412266
-0.68135506
-0.46618199
0.098049439
0.12955263
0.21289226
0.36666673
-1.6866666
-1.6383198
-1.7878748
-1.8916496
-1.8845445
-2.0988979
-2.4153934
-2.1940095
-1.7547761
-1.261027
-0.52071124
-0.2387771
0.017377984
0.17883553
0.39360568
0.51333344
-1.54
-1.6353458
-1.6482804
-1.7730721
-1.8788675
-2.3366315
-2.8668749
-2.8513038
-2.4480143
-1.5187083
-0.35216257
0.31546569
0.4365145
0.42216432
0.61928058
0.66000009
-1.3933333
-1.4495784
-1.5729772
-1.7466681
-1.7872074
-2.673455
nan
nan
nan
nan
0.58228463
0.28498068
0.27011788
0.64887029
0.80081594
0.80666673
-1.2466667
-1.3469578
-1.2389264
-1.2930673
-1.5583174
-1.9418272
nan
nan
nan
nan
1.5498315
0.87179381
0.96193993
0.674878
0.82544225
0.95333338
-1.0999999
-1.1461146
-1.0650934
-1.0952908
-1.4614362
-1.5089428
nan
nan
nan
nan
1.3841643
0.94992429
0.92238754
0.98367769
1.0826958
1.1000001
-0.95333326
-0.9462682
-0.72888792
-0.89757919
-0.99159741
-1.277649
-1.1539004
-0.74000663
-0.32256269
0.49696383
0.7733894
1.0771428
1.1179206
1.111867
1.160061
1.2466668
-0.80666661
-0.71549356
-0.66788018
-0.66892093
-0.68516219
-0.5752005
-0.47006142
-0.10515545
0.23554642
0.56867003
0.85454601
0.97441989
1.2312168
1.2077291
1.2681619
1.3933334
-0.65999985
-0.58794928
-0.4171353
-0.27289146
-0.18355678
-0.097723052
-0.032639485
0.28263295
0.52212316
0.58624494
0.94700283
0.94488865
1.1050829
1.2864124
1.446103
1.5400002
-0.51333332
-0.36666667
-0.21999997
-0.073333263
0.073333383
0.22000003
0.36666673
0.51333344
0.66000009
0.80666673
0.95333338
1.1000001
1.2466668
1.3933334
1.5400002
1.6866667
-2.5666666
-2.4200001
-2.2733335
-2.1266665
-1.98
-1.8333334
-1.6866666
-1.54
-1.3933333
-1.2466667
-1.1
-0.95333326
-0.80666661
-0.65999997
-0.5133332
-0.36666667
-2.4200001
-2.3275595
-2.2039523
-2.15031
-2.0159047
-1.9390864
-1.8640155
-1.6418509
-1.4239157
-1.2942194
-1.0976044
-0.97066289
-0.82233429
-0.59398955
-0.34061018
-0.22000003
-2.2733335
-2.1510658
-2.1869366
-2.1823034
-2.1618774
-2.1496902
-2.0202346
-1.8178568
-1.4568164
-1.4672686
-0.87288082
-0.82125479
-0.57434964
-0.33627599
-0.15230238
-0.073333323
-2.1266665
-2.1100175
-2.1049054
-2.1854858
-2.097193
-2.3357284
-2.1089153
-1.8294029
-1.7817464
-1.4054886
-1.1046182
-0.75819027
-0.35665229
-0.31101543
-0.070053428
0.073333383
-1.98
-2.1031702
-1.9311159
-2.0363564
-2.1684749
-2.2853978
-2.1872435
-2.0084393
-1.9520288
-1.6051933
-1.1227546
-0.3995966
-0.40062299
-0.29210755
0.10673279
0.22000003
-1.8333334
-1.9126666
-1.9573063
-2.1930585
-2.1504052
-2.1838698
-2.2176378
-2.1938412
-1.7803447
-1.2766742
-0.59055132
-0.33875835
-0.067784719
-0.020167453
0.29224223
0.36666667
-1.6866666
-1.7790685
-1.8639939
-1.9152299
-2.0692339
-2.1096888
-2.3802848
-2.215692
-1.8195541
-1.361973
-0.94751114
-0.42856216
0.22985883
0.45113274
0.47947484
0.51333338
-1.54
-1.5874358
-1.6603776
-1.8196672
-2.0790322
-2.2395139
-2.7263641
-2.4308698
-1.3511311
-0.77114391
-0.66116512
0.24363187
0.050207864
0.45274654
0.5049572
0.66000009
-1.3933333
-1.4563407
-1.4487371
-1.4776652
-1.8488503
-2.4656599
-2.8421619
-2.6750343
-2.0410624
-0.40271744
0.12145342
0.74937332
0.68722373
0.67004305
0.80199015
0.80666673
-1.2466667
-1.4431132
-1.3397632
-1.5709759
-1.7104877
-2.2350039
nan
nan
nan
nan
1.0362133
0.98294997
0.86684752
0.8868652
1.0396895
0.95333338
-1.1
-1.138876
-1.4346752
-1.2749064
-1.4329453
-1.6684229
nan
nan
nan
nan
2.1372776
1.1261446
1.1873417
0.89459246
1.0665705
1.1
-0.95333326
-0.93235403
-1.0521264
-1.0818759
-1.3731978
-1.7108305
nan
nan
nan
nan
1.452078
1.2467424
1.2116542
1.1908047
1.2066294
1.2466668
-0.80666661
-0.8953613
-0.67728704
-0.74042851
-1.3429751
-2.0417349
nan
nan
nan
nan
0.3931745
1.0622625
1.3069806
1.2711505
1.3550137
1.3933334
-0.65999997
-0.54271781
-0.4651852
-0.41553035
-0.75406158
-0.48487487
-0.93707597
nan
nan
1.3651658
1.2241756
1.329749
1.4091755
1.3575981
1.4624398
1.5400001
-0.5133332
-0.40924054
-0.27625439
-0.11113256
-0.10684881
0.024232894
-0.010581105
0.65258503
0.734694
0.97915572
1.2230809
1.3096858
1.3689924
1.485038
1.6452234
1.6866668
-0.36666667
-0.22000003
-0.073333323
0.073333383
0.22000003
0.36666667
0.51333338
0.66000009
0.80666673
0.95333338
1.1
1.2466668
1.3933334
1.5400001
1.6866668
1.8333334
-2.4200001
-2.2733333
-2.1266668
-1.98
-1.8333333
-1.6866667
-1.54
-1.3933332
-1.2466667
-1.0999999
-0.95333332
-0.80666655
-0.65999991
-0.51333326
-0.3666665
-0.21999997
-2.2733333
-2.2026718
-2.1284401
-2.0713499
-1.988404
-1.852475
-1.6468875
-1.6340461
-1.4821478
-1.3139597
-1.1535465
-0.62600744
-0.57887065
-0.41028041
-0.20247489
-0.073333323
-2.1266668
-2.1124928
-2.2488875
-2.1696377
-2.1376486
-1.9639685
-2.1859522
-1.7005887
-1.6346208
-1.370573
-1.0719836
-0.50423414
-0.23692507
-0.044895567
-0.12656453
0.073333383
-1.98
-1.9296063
-2.0890245
-2.0500383
-2.3447692
-2.4440279
-2.2048843
-1.8010256
-1.9441719
-1.8059087
-1.1181006
-0.39108223
-0.43572405
-0.070640251
0.12233289
0.22000009
-1.8333333
-1.8985451
-1.9056637
-2.1224139
-2.3405664
-2.6901755
-2.3455658
-1.9571499
-2.0229423
-1.5509325
-0.91701186
-0.19849089
-0.16975719
0.061304942
0.28171551
0.36666673
-1.6866667
-1.8023093
-1.8662461
-2.0835917
-2.2918131
-2.5297
-2.4978585
-2.2334518
-2.2839129
-1.76278
-0.44837737
-0.18387155
0.26172438
0.27640384
0.2759971
0.51333338
-1.54
-1.7515602
-1.7987517
-1.8083695
-2.0144587
-2.6521783
-3.0451787
-3.1462202
-2.5576088
-1.6994027
-0.25249085
0.076030739
0.39320081
0.60717028
0.48638439
0.66000009
-1.3933332
-1.3861203
-1.3972188
-1.6758586
-1.863322
-2.4778461
-2.6973526
-2.9633348
-1.3362333
-0.70313728
0.093296632
0.28390977
0.70560116
0.83579886
0.76942164
0.80666679
-1.2466667
-1.1723999
-1.4331924
-1.5580405
-1.9463631
-2.2218564
-2.5593653
nan
nan
-0.049721211
0.70047617
0.90122491
0.67642003
1.0173235
0.87742573
0.95333344
-1.0999999
-1.2801756
-1.2954715
-1.4800539
-1.5943122
-1.87529
-2.5394247
nan
nan
1.1188227
1.3547257
1.1868011
1.2245034
1.3433193
1.0862178
1.1000001
-0.95333332
-0.91459537
-0.94417632
-1.0155492
-1.2283092
-1.4290643
nan
nan
nan
nan
2.1125658
1.7224635
1.4554166
1.3928436
1.2523013
1.2466667
-0.80666655
-0.79064018
-0.84131002
-0.83956021
-1.0681521
-1.434103
nan
nan
nan
nan
1.5621308
1.4642179
1.3680017
1.5743604
1.3687694
1.3933334
-0.65999991
-0.75791794
-0.59791481
-0.6879012
-1.2635583
nan
nan
nan
nan
nan
nan
1.6766453
1.5751693
1.5134664
1.5833232
1.5400002
-0.51333326
-0.40813118
-0.42614004
-0.36507416
-0.029632498
1.0092207
0.80723083
nan
nan
2.9999077
2.1409824
1.7654865
1.5583506
1.5409319
1.6560791
1.6866667
-0.3666665
-0.27377185
-0.10086349
-0.040574197
0.26328954
0.37243465
0.93286395
1.6495711
1.4373621
2.45576
1.4925177
1.5319178
1.51258
1.7182045
1.7605134
1.8333335
-0.21999997
-0.073333323
0.073333383
0.22000009
0.36666673
0.51333338
0.66000009
0.80666679
0.95333344
1.1000001
1.2466667
1.3933334
1.5400002
1.6866667
1.8333335
1.98
-2.2733333
-2.1266665
-1.98
-1.8333333
-1.6866666
-1.54
-1.3933332
-1.2466666
-1.0999999
-0.95333326
-0.80666661
-0.65999985
-0.5133332
-0.36666656
-0.21999979
-0.073333263
-2.1266665
-2.0313423
-1.963257
-1.9144652
-1.8548626
-1.7551579
-1.618582
-1.4343059
-1.3051541
-1.0980532
-0.83128822
-0.5880205
-0.35421586
-0.26140386
-0.061481748
0.073333383
-1.98
-1.9502684
-1.9451851
-1.995123
-2.0068858
-2.2109435
-2.0553045
-1.6861562
-1.6574577
-1.6806996
-0.95434505
-0.59142703
-0.15806615
0.0017122834
0.048349112
0.22000009
-1.8333333
-1.8929614
-1.9240514
-2.0452306
-2.3690894
-3.4229116
nan
-1.6430851
-2.3503153
nan
-0.61344188
-0.19140469
0.0067192549
0.3545844
0.13880102
0.36666679
-1.6866666
-1.7243519
-1.7727793
-2.0574212
-2.3291805
-3.510802
nan
-0.78454846
-2.7686682
nan
0.48826712
-0.004321354
0.46746129
0.37336138
0.37075898
0.51333344
-1.54
-1.7258738
-1.6316974
-1.9761893
-2.305095
-3.2065556
nan
-2.3204324
-3.317245
nan
0.74805093
0.57000303
0.43113223
0.60627991
0.65105265
0.66000009
-1.3933332
-1.4679402
-1.5993546
-1.8224983
-2.1405883
-2.8224938
nan
nan
nan
nan
0.92175472
0.74162972
0.60846162
0.79076719
0.7785784
0.80666679
-1.2466666
-1.3278993
-1.4123772
-1.7136633
-2.0784223
-2.3758147
nan
nan
nan
nan
1.1270431
1.1502693
1.0179466
1.0910702
1.0028566
0.9533335
-1.0999999
-1.1019379
-1.1998928
-1.7002228
-1.4479938
-1.9815818
nan
nan
nan
nan
1.6079025
1.2925169
1.3295128
1.2348524
1.0826458
1.1000001
-0.95333326
-1.0126134
-0.99389458
-0.99042076
-1.2943684
-1.4588244
-1.6206632
nan
nan
1.8728667
1.8149608
1.5334432
1.5761377
1.3252251
1.2403743
1.2466668
-0.80666661
-0.83789188
-0.9440133
-0.87460834
-0.92706907
-0.89896852
nan
nan
nan
nan
2.3711989
1.86598
1.6704056
1.729274
1.3567743
1.3933334
-0.65999985
-0.51639986
-0.53423089
-0.44924706
-0.67561632
-0.059816465
nan
nan
nan
nan
2.3224323
2.0611038
1.7138859
1.5961056
1.5777131
1.5400002
-0.5133332
-0.45293322
-0.35595486
-0.29484454
-0.23237815
0.99755788
1.7370127
nan
nan
3.3929086
2.7613108
2.0037413
1.8881853
1.8168819
1.7193346
1.6866668
-0.36666656
-0.20903862
-0.090726107
0.12049286
0.39163262
1.2731404
1.6439662
2.1079655
2.8322322
2.7609968
2.4959393
2.1195114
1.8853568
1.7825099
1.744172
1.8333335
-0.21999979
-0.13005382
-0.070184283
0.21505162
0.21311976
0.72035831
1.1770642
1.5619085
1.7645363
2.1150002
1.782261
1.7907068
1.7504271
1.886659
1.9347781
1.9800003
-0.073333263
0.073333383
0.22000009
0.36666679
0.51333344
0.66000009
0.80666679
0.9533335
1.1000001
1.2466668
1.3933334
1.5400002
1.6866668
1.8333335
1.9800003
2.1266668
-2.1266665
-1.9799999
-1.8333334
-1.6866666
-1.54
-1.3933333
-1.2466666
-1.0999999
-0.95333326
-0.80666661
-0.65999997
-0.5133332
-0.36666656
-0.21999991
-0.073333144
0.073333383
-1.9799999
-1.8826066
-1.7848634
-1.7897902
-1.6852784
-1.490041
-1.4227853
-1.2292104
-1.21099
-1.0218669
-0.53567874
-0.29687002
-0.20688407
-0.052491535
0.028822577
0.22000003
-1.8333334
-1.8207117
-1.8740927
-1.8096195
-1.8535627
-1.8918867
-1.6583984
-1.211893
-1.2772901
-0.9502849
-0.57870448
-0.15887395
0.16651531
0.24846855
0.21773146
0.36666673
-1.6866666
-1.6423275
-1.6866449
-1.9666678
-2.042212
-2.5797858
nan
-0.26609263
-2.1140311
nan
0.72250897
0.24359329
0.47908205
0.34525937
0.46863437
0.51333344
-1.54
-1.6302826
-1.7037944
-1.9289451
-1.9916164
nan
nan
0.79089892
-2.0422535
nan
nan
0.75677401
0.62368745
0.73075849
0.6824342
0.66000009
-1.3933333
-1.4078312
-1.6501868
-1.6558245
-2.1425402
nan
nan
nan
nan
nan
nan
1.3082662
0.72527879
0.75145024
0.79711038
0.80666673
-1.2466666
-1.2558244
-1.6705676
-1.716171
-1.9647406
nan
nan
nan
nan
nan
nan
1.1656358
1.1571339
1.2524003
1.0438646
0.95333344
-1.0999999
-1.2473296
-1.2944098
-1.5930502
-1.7265307
-2.2661386
nan
nan
nan
nan
1.8788756
1.5617491
1.3202951
1.4201797
1.2056348
1.1000001
-0.95333326
-0.99294901
-1.096404
-1.1858393
-1.0380024
-1.3145489
nan
nan
nan
nan
2.3358006
1.6788479
1.6062299
1.5017008
1.1639421
1.2466668
-0.80666661
-0.87038195
-0.85987294
-0.56246936
-1.0428604
-0.89560401
nan
nan
nan
nan
2.3643322
2.0283475
1.7390671
1.455138
1.4003474
1.3933334
-0.65999997
-0.6960761
-0.59669214
-0.64089972
-0.45430231
-0.50077087
0.29501176
1.8634782
2.8979838
2.8982131
2.3347602
2.263653
2.0825181
1.5423312
1.5622001
1.5400001
-0.5133332
-0.47620103
-0.51330584
-0.39295584
0.085414201
0.54021573
1.1617032
2.1801183
3.1829076
3.2151511
2.3855495
2.323406
2.225656
1.6703043
1.7356422
1.6866668
-0.36666656
-0.34180439
-0.21762528
0.10646092
0.25268012
0.92530292
1.1800809
2.0670035
2.8408697
2.8221464
2.1928029
2.1150978
1.9938967
1.8002533
1.8943042
1.8333335
-0.21999991
-0.19693485
-0.019425279
0.22150005
0.55730742
0.75077462
1.3827088
1.7754285
2.0388923
2.2546134
2.2751
2.0284262
1.9235667
1.9463458
1.9793789
1.9800001
-0.073333144
0.12583964
0.24380259
0.30686748
0.66968203
0.79944724
1.1422684
1.4047482
1.7151319
1.8876764
1.8142885
1.9869568
1.9333216
1.9902796
2.0887735
2.126667
0.073333383
0.22000003
0.36666673
0.51333344
0.66000009
0.80666673
0.95333344
1.1000001
1.2466668
1.3933334
1.5400001
1.6866668
1.8333335
1.9800001
2.126667
2.2733335
-1.98
-1.8333333
-1.6866667
-1.54
-1.3933333
-1.2466667
-1.0999999
-0.95333326
-0.80666661
-0.65999997
-0.51333332
-0.36666656
-0.21999991
-0.073333263
0.073333502
0.22000003
-1.8333333
-1.7159662
-1.6796887
-1.5577518
-1.4366932
-1.3141998
-1.2657642
-0.97922266
-0.8120895
-0.70819736
-0.31359383
-0.216904
-0.029977247
0.11814264
0.25387919
0.36666667
-1.6866667
-1.6782109
-1.734322
-1.7091361
-1.5654503
-1.5330954
-1.3782803
-1.1640698
-0.83857924
-0.44784319
-0.18556122
0.34603372
0.33419114
0.29364604
0.33999389
0.51333338
-1.54
-1.5972695
-1.628494
-1.6339917
-1.6037982
-1.4562474
-0.53050995
-0.80402648
-1.0393722
-0.0048620431
0.56142902
0.42912009
0.52812088
0.51455259
0.64873904
0.66000009
-1.3933333
-1.5400549
-1.5674266
-1.6333293
-1.7825283
-1.398659
0.4976235
-1.4562895
-1.7287948
0.32439497
1.1867418
0.88153893
0.86762279
0.82952398
0.77467924
0.80666673
-1.2466667
-1.3674872
-1.3810939
-1.6896214
-1.8485588
-2.4206665
nan
nan
nan
nan
1.5403041
1.4046971
1.2525462
0.99739283
1.0546134
0.95333338
-1.0999999
-1.2027606
-1.3438481
-1.3803318
-1.6952858
nan
nan
nan
nan
nan
nan
1.7903141
1.5980654
1.4012018
1.1859292
1.1000001
-0.95333326
-1.0251367
-1.1366817
-1.0975609
-1.4013582
nan
nan
nan
nan
nan
nan
1.8832778
1.7130147
1.4131386
1.3538442
1.2466668
-0.80666661
-0.76539576
-0.9596222
-0.84842885
-0.93810505
-0.81419933
nan
nan
nan
nan
2.9950495
2.3360453
1.8928292
1.7408575
1.5073719
1.3933334
-0.65999997
-0.5754317
-0.66372073
-0.48828048
-0.54688722
-0.4945572
nan
nan
nan
nan
3.0048065
2.4145205
2.0236669
1.7961545
1.6140656
1.5400001
-0.51333332
-0.46908325
-0.43174222
-0.47963703
-0.0030840659
0.48017663
0.87525862
2.0159209
2.7398922
3.1548555
2.6710839
2.3558016
2.1358085
1.8102452
1.7423306
1.6866667
-0.36666656
-0.36559096
-0.0022163112
0.060510077
0.29041791
0.36768258
1.1467267
2.0086663
2.4951274
2.6722102
2.8016479
2.248296
2.0310824
1.8782268
1.900254
1.8333335
-0.21999991
-0.089535668
0.0042524477
0.059479706
0.24788968
0.78804934
1.5684857
1.9863251
2.3597944
2.3761225
2.5284719
2.2174072
2.0470426
2.0790608
1.95811
1.9800001
-0.073333263
-0.033313144
0.1499839
0.31501827
0.62030047
0.73467886
1.3129417
1.630041
1.9190952
1.9458011
2.020539
2.095871
2.1462941
2.0609245
2.1207294
2.1266668
0.073333502
0.38184819
0.40822607
0.58739817
0.71581012
1.0249114
1.1461092
1.5761684
1.8322171
1.905552
2.0630751
1.9384973
1.9535235
2.1758983
2.1254942
2.2733335
0.22000003
0.36666667
0.51333338
0.66000009
0.80666673
0.95333338
1.1000001
1.2466668
1.3933334
1.5400001
1.6866667
1.8333335
1.9800001
2.1266668
2.2733335
2.4200001
-1.8333334
-1.6866666
-1.5400001
-1.3933333
-1.2466667
-1.1
-0.95333326
-0.80666661
-0.65999997
-0.51333332
-0.36666667
-0.21999991
-0.073333263
0.073333383
0.22000015
0.36666667
-1.6866666
-1.6199682
-1.5407869
-1.5378292
-1.2936953
-1.2998271
-1.0893009
-0.84319657
-0.77712172
-0.4494701
-0.35633451
-0.004168205
0.14089602
0.2132795
0.40522414
0.51333332
-1.5400001
-1.4695698
-1.4372638
-1.5065247
-1.5495675
-1.4365281
-1.2843122
-1.0222862
-0.84800947
-0.6104548
-0.32421181
0.17999391
0.36252782
0.53024113
0.50535953
0.66000003
-1.3933333
-1.3777052
-1.3531376
-1.4700798
-1.7700602
-1.7178308
-1.2152883
-1.4912375
-0.84266418
-0.35659379
-0.0046061054
0.35828844
0.57065243
0.67224199
0.6566456
0.80666673
-1.2466667
-1.3310682
-1.3801682
-1.4419372
-1.8299055
-1.8001624
-2.2744038
nan
nan
-0.51091069
0.42409131
0.58821762
0.81491733
0.98605323
0.87477553
0.95333338
-1.1
-1.1598151
-1.1734134
-1.6780784
-1.6679493
-2.7209406
nan
nan
nan
nan
1.0568419
1.3659276
1.2652632
1.1635026
1.1091001
1.1
-0.95333326
-0.99961412
-1.0983289
-1.065227
-1.6368264
nan
nan
nan
nan
nan
nan
1.8594931
1.5969576
1.5580293
1.1993321
1.2466667
-0.80666661
-0.7903586
-0.9808774
-0.91651446
-0.83098376
nan
nan
nan
nan
nan
nan
2.1266735
1.9430331
1.5071741
1.4997801
1.3933334
-0.65999997
-0.68074292
-0.67452437
-0.63156444
-0.64909226
-0.49215296
nan
nan
nan
nan
3.211411
2.4093778
2.0256553
1.8628088
1.7318395
1.5400001
-0.51333332
-0.49715152
-0.27582306
-0.22603472
-0.31918949
0.14462104
0.93300194
nan
nan
4.1254811
3.2257576
2.5163913
2.2249305
1.9617938
1.7427044
1.6866667
-0.36666667
-0.23415972
-0.13837014
-0.027847644
0.088110186
0.5977053
1.3145368
2.1935852
2.8939917
2.852216
2.6723971
2.3905332
2.1867044
2.0119731
1.9465624
1.8333334
-0.21999991
-0.04194539
-0.11163812
0.11557376
0.63953936
0.828134
1.4014362
2.0805058
2.1707625
2.5711017
2.2731154
2.4435709
2.2205725
2.1465609
1.9727341
1.9800001
-0.073333263
0.070039086
0.38082051
0.23347382
0.71366543
0.86869842
1.4270122
1.8542455
2.1489944
2.3877456
2.3679368
2.1027346
2.206887
2.133795
2.1286082
2.1266668
0.073333383
0.035364307
0.47975245
0.59849936
0.9207561
1.0492407
1.2283113
1.6795204
1.8971521
2.117048
2.1984215
2.1841054
2.1871569
2.2656291
2.2431123
2.2733335
0.22000015
0.37500155
0.53204459
0.613626
0.95254356
1.1216122
1.2656252
1.4711598
1.6704044
1.8445119
1.8655639
2.0722106
2.2116444
2.2523012
2.3142307
2.4200001
0.36666667
0.51333332
0.66000003
0.80666673
0.95333338
1.1
1.2466667
1.3933334
1.5400001
1.6866667
1.8333334
1.9800001
2.1266668
2.2733335
2.4200001
2.5666666
-1.6866666
-1.5399998
-1.3933333
-1.2466666
-1.0999999
-0.95333326
-0.80666649
-0.65999985
-0.5133332
-0.36666656
-0.21999991
-0.073333144
0.073333502