# vtk DataFile Version 3.0
WoSt Poisson solution ã?structured grid
ASCII
DATASET STRUCTURED_POINTS
DIMENSIONS 16 16 16
ORIGIN -0.22 -0.22 -0.22
SPACING 0.029333333 0.029333333 0.029333333
POINT_DATA 4096
SCALARS solution float 1
LOOKUP_TABLE default
-0.65999997
-0.63066661
-0.60133338
-0.57200003
-0.54266667
-0.51333332
-0.484
-0.45466667
-0.42533332
-0.396
-0.36666667
-0.33733335
-0.308
-0.27866668
-0.24933335
-0.22
-0.63066661
-0.60133332
-0.57200003
-0.54266667
-0.51333332
-0.484
-0.45466667
-0.42533332
-0.396
-0.36666667
-0.33733332
-0.30800003
-0.27866668
-0.24933334
-0.22000001
-0.19066666
-0.60133338
-0.57200003
-0.54266667
-0.51333332
-0.484
-0.45466667
-0.42533332
-0.39600003
-0.36666667
-0.33733332
-0.30800003
-0.27866668
-0.24933334
-0.22000001
-0.19066669
-0.16133334
-0.57200003
-0.54266667
-0.51333332
-0.484
-0.45466667
-0.42533332
-0.396
-0.36666667
-0.33733332
-0.308
-0.27866668
-0.24933335
-0.22
-0.19066668
-0.16133335
-0.132
-0.54266667
-0.51333332
-0.484
-0.45466667
-0.42533332
-0.396
-0.36666667
-0.33733335
-0.308
-0.27866668
-0.24933335
-0.22000003
-0.19066668
-0.16133335
-0.13200003
-0.10266667
-0.51333332
-0.484
nan
-0.42533332
-0.396
-0.36666667
-0.33733332
-0.30800003
-0.27866668
-0.24933334
-0.22000001
-0.19066669
-0.16133334
-0.13200001
-0.10266669
-0.073333338
-0.484
-0.45466667
-0.42533332
-0.396
-0.36666667
-0.33733332
-0.308
-0.27866668
-0.24933334
-0.22
-0.19066668
-0.16133335
-0.132
-0.10266668
-0.073333353
-0.044
-0.45466667
-0.42533332
-0.39600003
-0.36666667
-0.33733335
-0.30800003
-0.27866668
-0.24933335
-0.22000001
-0.19066668
-0.16133335
-0.13200003
-0.10266668
-0.073333353
-0.04400003
-0.014666677
-0.42533332
-0.396
-0.36666667
-0.33733332
-0.308
-0.27866668
-0.24933334
-0.22000001
-0.19066668
-0.16133334
-0.13200001
-0.10266669
-0.073333338
-0.044000015
-0.014666691
0.014666662
-0.396
-0.36666667
-0.33733332
-0.308
-0.27866668
-0.24933334
-0.22
-0.19066668
-0.16133334
-0.132
-0.10266668
-0.073333353
-0.044
-0.014666677
0.014666647
0.044
-0.36666667
-0.33733332
-0.30800003
-0.27866668
-0.24933335
-0.22000001
-0.19066668
-0.16133335
-0.13200001
-0.10266668
-0.073333353
-0.04400003
-0.014666677
0.014666647
0.04399997
0.073333323
-0.33733335
-0.30800003
-0.27866668
-0.24933335
-0.22000003
-0.19066669
-0.16133335
-0.13200003
-0.10266669
-0.073333353
-0.04400003
-0.014666706
0.014666647
0.04399997
0.073333293
0.10266665
-0.308
-0.27866668
-0.24933334
-0.22
-0.19066668
-0.16133334
-0.132
-0.10266668
-0.073333338
-0.044
-0.014666677
0.014666647
0.044
0.073333323
0.10266665
0.132
-0.27866668
-0.24933334
-0.22000001
-0.19066668
-0.16133335
-0.13200001
-0.10266668
-0.073333353
-0.044000015
-0.014666677
0.014666647
0.04399997
0.073333323
0.10266665
0.13199997
0.16133332
-0.24933335
-0.22000001
-0.19066669
-0.16133335
-0.13200003
-0.10266669
-0.073333353
-0.04400003
-0.014666691
0.014666647
0.04399997
0.073333293
0.10266665
0.13199997
0.16133329
0.19066665
-0.22
-0.19066666
-0.16133334
-0.132
-0.10266667
-0.073333338
-0.044
-0.014666677
0.014666662
0.044
0.073333323
0.10266665
0.132
0.16133332
0.19066665
0.22
-0.63066667
-0.60133332
-0.57200003
-0.54266667
-0.51333332
-0.48400003
-0.45466667
-0.42533332
-0.396
-0.36666667
-0.33733332
-0.30800003
-0.27866668
-0.24933334
-0.22000001
-0.19066666
-0.60133332
-0.5674327
-0.54232115
-0.50965488
-0.49356735
-0.45113328
-0.43483046
-0.39606306
-0.36782151
-0.34080124
-0.30449596
-0.27910483
-0.24754611
-0.22324686
-0.19039869
-0.16133332
-0.57200003
-0.53887296
-0.51046419
-0.49006468
-0.44447899
-0.42962185
-0.38960117
-0.35981235
-0.32954532
-0.31515858
-0.27367494
-0.24307001
-0.22113165
-0.19872673
-0.15804546
-0.132
-0.54266667
-0.51198685
-0.49152029
-0.46778774
-0.42520881
-0.39202708
-0.37290421
-0.33762464
-0.31710279
-0.27570695
-0.24386822
-0.22065467
-0.19432651
-0.1574764
-0.13589838
-0.10266666
-0.51333332
-0.48378566
-0.46226788
-0.43342298
-0.38440502
-0.37345803
-0.3201485
-0.31641349
-0.27671015
-0.24072517
-0.22323649
-0.18924457
-0.15472363
-0.13964084
-0.11060093
-0.07333333
-0.48400003
-0.46337622
-0.42872193
-0.39091626
-0.3612887
-0.34551212
-0.30376318
-0.28118947
-0.24271922
-0.20858261
-0.1909094
-0.16624214
-0.11739112
-0.10857514
-0.071369171
-0.044
-0.45466667
-0.43286848
-0.40567416
-0.36315233
-0.33990675
-0.30274662
-0.28938392
-0.25955194
-0.23028964
-0.20352575
-0.15645592
-0.12889333
-0.097231574
-0.074475236
-0.044279233
-0.014666662
-0.42533332
-0.39660209
-0.37249595
-0.34313777
-0.30212235
-0.28162026
-0.25192481
-0.21587783
-0.17846937
-0.14369546
-0.11970424
-0.097988605
nan
-0.042438127
-0.021604514
0.014666662
-0.396
-0.36276546
-0.32515565
-0.3184717
-0.27946991
-0.24404173
-0.21719281
-0.19181657
-0.16710252
-0.13965262
-0.10705717
-0.063595399
-0.045824055
-0.009976007
0.0074085449
0.044
-0.36666667
-0.33543292
-0.30622658
-0.28531739
-0.24941556
-0.224393
-0.18767469
-0.16352978
-0.14568551
-0.10733109
-0.076002851
-0.040231008
-0.018498307
0.0090571772
0.040239312
0.073333338
-0.33733332
-0.31518966
-0.26588956
-0.2414614
-0.21948752
-0.176579
-0.17829055
-0.14520673
-0.10175209
-0.079648301
-0.048325103
-0.032334045
0.010617253
0.046093933
0.07883013
0.10266666
-0.30800003
-0.28405169
-0.26134831
-0.22110015
-0.20264928
-0.15624224
-0.13110894
-0.11135699
-0.067870893
-0.046097744
-0.022165386
nan
0.042782236
0.06611491
0.10606975
0.13199998
-0.27866668
-0.24483132
-0.22257875
-0.18489285
-0.16050979
-0.13057896
-0.10661666
-0.067779452
-0.053493999
-0.016919771
0.018426772
0.045537326
0.072092324
0.10085903
0.13230081
0.16133334
-0.24933334
-0.2207163
-0.19097312
-0.1621837
-0.12742785
-0.099886782
-0.072392039
-0.036606889
-0.0091492515
-0.00033896294
0.041231211
0.075874552
0.1005358
0.12813814
0.16531619
0.19066666
-0.22000001
-0.19420189
-0.16310982
-0.13314982
-0.099608071
-0.073275559
-0.041099854
-0.014445219
0.012217694
0.052098397
0.083417229
0.10955804
0.13458635
0.16685638
0.18448223
0.21999998
-0.19066666
-0.16133332
-0.132
-0.10266666
-0.07333333
-0.044
-0.014666662
0.014666662
0.044
0.073333338
0.10266666
0.13199998
0.16133334
0.19066666
0.21999998
0.24933334
-0.60133332
-0.57199997
-0.54266667
-0.51333332
-0.48400003
-0.45466667
-0.42533332
-0.39600003
-0.36666667
-0.33733332
-0.30800003
-0.27866668
-0.24933334
-0.22000001
-0.19066669
-0.16133334
-0.57199997
-0.5488286
-0.50977087
-0.49028245
-0.46190315
-0.42126158
-0.38342747
-0.3508873
-0.34427136
-0.31287226
-0.29500556
-0.2561754
-0.21540721
-0.19125544
-0.15963781
-0.132
-0.54266667
-0.52085209
-0.49946189
-0.46228668
-0.41850582
-0.39058214
-0.37299094
-0.34574106
-0.30636036
-0.27669844
-0.26444596
-0.21559955
-0.18626256
-0.15796484
-0.1344005
-0.10266668
-0.51333332
-0.48277792
-0.46275625
-0.4339644
-0.39397904
-0.35515013
-0.33297539
-0.30313149
-0.27562642
-0.25730157
-0.23991416
-0.20279042
-0.17265479
-0.12566653
-0.11088227
-0.073333338
-0.48400003
-0.44975469
-0.43174395
-0.4033215
-0.35927284
-0.35380644
-0.29775634
-0.27845317
-0.2432272
-0.20704643
-0.18318078
-0.17069232
-0.13223895
-0.10820553
-0.071022429
-0.044000007
-0.45466667
-0.41945145
-0.4059318
-0.36165047
-0.3265281
-0.31036577
-0.29670972
-0.25961727
-0.22148706
-0.19754787
-0.1740021
-0.13891484
-0.092995569
-0.065749429
-0.043091692
-0.014666677
-0.42533332
-0.3914462
-0.35614648
-0.32118887
-0.32790938
-0.28019181
-0.25086877
-0.23613209
-0.20188554
-0.16401926
-0.13270178
-0.08673498
-0.069109805
-0.035487697
-0.023840195
0.014666662
-0.39600003
-0.37077862
-0.3317951
-0.29820585
-0.28043222
-0.25410914
-0.21285161
-0.19869919
-0.15788284
-0.14094414
-0.10708588
-0.082637832
-0.055295885
-0.014696602
0.004850388
0.043999985
-0.36666667
-0.33568957
-0.30709785
-0.2739211
-0.2590442
-0.21376078
-0.19896416
-0.14987262
-0.14044711
-0.10009933
-0.08086168
-0.043027502
-0.012872822
0.022016784
0.048803248
0.073333323
-0.33733332
nan
-0.28606293
-0.24963087
-0.22830656
-0.19624288
-0.16484378
-0.13903613
-0.090292186
-0.05247499
-0.048718411
-0.036625266
0.016715543
0.056461815
0.069192566
0.10266666
nan
-0.27450517
-0.25192508
-0.22590764
-0.18785542
-0.15587074
-0.12470612
-0.095154867
-0.082907677
-0.046308212
-0.0016806028
0.016098894
0.039600745
0.076026849
0.10022761
0.13199998
-0.27866668
-0.24804671
-0.22610041
-0.19575469
-0.14980641
-0.11403282
-0.11161067
-0.075077593
-0.041694589
-0.0057510934
0.0095570926
0.049661573
0.07121525
0.097908549
0.13280044
0.16133331
-0.24933334
-0.21918872
-0.1971883
-0.15498431
-0.13161658
-0.1106704
-0.056321487
-0.044569418
-0.0084573552
0.030750426
0.02951654
0.074981794
0.10365839
0.1323382
0.17225377
0.19066666
-0.22000001
-0.19161601
-0.16064678
-0.1405001
-0.090194106
-0.074081004
-0.055960745
-0.0062071462
0.023315709
0.049001455
0.068076514
0.10410585
0.12401171
0.15355523
0.19777979
0.21999998
-0.19066669
-0.16764784
-0.14530319
nan
-0.08388593
-0.04509877
-0.0064040706
0.015231691
0.048334036
0.074671924
0.10754024
0.12606275
0.15587005
0.19357544
0.21143061
0.24933331
-0.16133334
-0.132
-0.10266668
-0.073333338
-0.044000007
-0.014666677
0.014666662
0.043999985
0.073333323
0.10266666
0.13199998
0.16133331
0.19066666
0.21999998
0.24933331
0.27866668
-0.57200003
-0.54266667
-0.51333332
-0.484
-0.45466667
-0.42533335
-0.396
-0.36666667
-0.33733332
-0.308
-0.27866668
-0.24933335
-0.22
-0.19066668
-0.16133335
-0.132
-0.54266667
-0.51008028
-0.47616357
-0.45145443
-0.4347789
-0.39281392
-0.36968946
-0.33612698
-0.32038045
-0.28126696
-0.25981528
-0.22646844
-0.18673997
-0.1515815
-0.13573948
-0.10266666
-0.51333332
-0.49236986
-0.45482877
-0.43750277
-0.38862577
-0.38704816
-0.34344143
-0.29995278
-0.27808774
-0.24001874
-0.20760612
-0.18384206
-0.17115775
-0.12434454
-0.093847156
-0.073333338
-0.484
-0.45029628
-0.4303537
-0.38130537
-0.38136086
-0.35697365
-0.29903618
-0.27221915
-0.25182143
-0.22658908
-0.18636201
-0.17001496
-0.12297094
-0.10103766
-0.059659977
-0.044
-0.45466667
-0.41175386
-0.39677656
-0.38908604
-0.33548704
-0.31164449
-0.28483057
-0.2347925
-0.21011859
-0.20490925
-0.16534194
-0.12813586
-0.11274797
-0.079343475
-0.045587897
-0.014666669
-0.42533335
-0.39613977
-0.36750177
-0.34404019
-0.30130398
-0.28605741
-0.24973556
-0.23361948
-0.21152925
-0.14014064
-0.1128015
-0.1027588
-0.078799523
-0.041546371
-0.011023756
0.014666662
-0.396
-0.36267939
-0.32856798
-0.3146528
-0.29046813
-0.23551494
-0.20751275
-0.19167699
-0.15552483
-0.13175188
-0.080324769
-0.074288011
-0.054237667
-0.028503541
0.018490354
0.044
-0.36666667
-0.33822003
-0.31822982
-0.29066122
-0.25336736
-0.23359446
-0.20856132
-0.15245673
-0.14467013
-0.081015073
-0.073696159
-0.040020585
-0.016475845
0.015519321
0.046160851
0.073333323
-0.33733332
-0.30921912
-0.28246331
-0.24474004
-0.23133416
-0.19129178
-0.15348552
-0.12142749
-0.11483838
-0.091690183
-0.046848789
-0.014625832
0.013465101
0.032958083
0.059820805
0.10266666
-0.308
-0.29207411
-0.24050394
-0.22092226
-0.19857852
-0.15340444
-0.13807809
-0.11177327
-0.08375401
-0.042479675
-0.02957413
0.010073952
0.037824102
0.068338461
0.10158166
0.132
-0.27866668
-0.24717644
-0.21747263
-0.19306062
-0.14847888
-0.14061597
-0.09053117
nan
-0.034245361
-0.014869494
0.0017099304
0.033485088
0.058936458
0.12762634
0.12872314
0.16133332
-0.24933335
-0.21150333
-0.21798179
-0.15794046
-0.12860104
-0.09749452
-0.077882268
-0.032966822
-0.021904986
0.010104762
0.050518416
0.099141888
0.10757823
0.14315963
0.14911975
0.19066665
-0.22
-0.19455159
-0.16362126
-0.12590855
-0.11147901
-0.064104266
-0.040834885
-0.010575058
0.015090442
0.027187871
0.065671444
0.10615583
0.1479091
0.17680348
0.18734646
0.22
-0.19066668
-0.16139515
-0.13501331
-0.09904664
-0.081944861
-0.059560057
-0.014323545
0.01351393
0.04182031
0.079969622
0.097363181
0.12286039
0.15884218
0.19414826
0.2203806
0.24933332
-0.16133335
-0.13261606
-0.094427213
-0.077281088
-0.036467046
-0.019261759
0.014243043
0.041976139
0.08384946
0.099844433
0.14294936
0.14892018
0.18512478
0.21142811
0.25167975
0.27866665
-0.132
-0.10266666
-0.073333338
-0.044
-0.014666669
0.014666662
0.044
0.073333323
0.10266666
0.132
0.16133332
0.19066665
0.22
0.24933332
0.27866665
0.308
-0.54266667
-0.51333332
-0.48400003
-0.45466667
-0.42533335
-0.39600003
-0.36666667
-0.33733335
-0.308
-0.27866668
-0.24933335
-0.22000003
-0.19066668
-0.16133335
-0.13200003
-0.10266667
-0.51333332
-0.48349696
-0.45559287
-0.42663705
-0.38918507
-0.36099491
-0.33990502
-0.32959846
-0.27879572
-0.250034
-0.2226841
-0.18700241
-0.1690641
-0.12803103
-0.099964388
-0.07333333
-0.48400003
-0.45525301
-0.42538452
-0.41027454
-0.34703413
-0.33666396
-0.32002854
-0.27417889
-0.25571451
-0.2231926
-0.19850199
-0.17176673
-0.13965972
-0.10602462
-0.084580466
-0.044000007
-0.45466667
-0.41961101
-0.40392679
-0.36476094
-0.32592991
-0.30005085
-0.28806597
-0.23291937
-0.22441469
-0.19725883
-0.1676088
-0.12827273
-0.11612574
-0.058272988
-0.039943192
-0.014666669
-0.42533335
-0.40149024
-0.35358116
-0.32166842
-0.30563527
-0.28986081
-0.26474711
-0.22420619
-0.17938876
-0.16401565
-0.099432565
-0.097049095
-0.084106751
-0.041803334
-0.016612211
0.014666662
-0.39600003
-0.36517605
-0.33935028
-0.32021025
-0.28614148
-0.25514433
-0.21913201
-0.2078549
-0.15073366
-0.12005331
-0.10488205
-0.078432091
-0.046177927
-0.011785197
0.034856722
0.043999992
-0.36666667
-0.33501408
-0.31415468
-0.28206608
-0.26507574
-0.22000812
-0.18633558
-0.15188771
-0.12179042
-0.12161052
-0.067285217
-0.033757977
-0.0058404286
-0.016678214
0.060360391
0.07333333
-0.33733335
-0.3003116
-0.29209119
-0.25775963
-0.21705583
-0.21066383
-0.16869308
-0.1344716
-0.10868311
-0.062973402
-0.017774373
-0.016329352
0.031424139
0.059571758
0.075196855
0.10266665
-0.308
-0.28724989
-0.25698069
-0.21735793
-0.20517428
-0.14840989
-0.12630717
-0.11453861
-0.057827365
-0.035969149
-0.014863967
0.013592679
0.044539221
0.08076334
0.096928045
0.132
-0.27866668
-0.24647644
-0.21755639
-0.19931211
-0.16553773
-0.11378075
-0.11512963
-0.077516362
-0.042739768
-0.010029923
0.014044309
0.046600711
0.094017893
0.11948952
0.12567246
0.16133332
-0.24933335
-0.22012073
-0.21609929
-0.15238784
-0.13864812
-0.088461712
-0.062861241
-0.040973846
-0.0013020028
-0.0034430018
0.035926931
0.069374286
0.090858966
0.12689815
0.16293088
0.19066665
-0.22000003
-0.19391744
-0.14711015
-0.13632829
-0.105721
-0.076869674
-0.042655345
-0.014223937
0.010645617
0.047844
0.070718788
0.14598747
0.13431083
0.15185352
0.19121753
0.21999997
-0.19066668
-0.15718786
-0.12686163
-0.09249305
-0.066134341
-0.027235691
-0.0046707597
0.0091285575
0.028955661
0.096579887
0.10805858
0.12257718
0.17349392
0.19468026
0.21622059
0.24933332
-0.16133335
-0.13489516
-0.11183887
-0.081149124
-0.045711659
-0.014207795
0.018517865
0.045864783
0.082530662
0.10698063
0.13506536
0.16092616
0.18808039
0.21563417
0.24911402
0.27866665
-0.13200003
-0.10553478
-0.080822036
-0.036663726
-0.015845383
0.014200362
0.041582424
0.07312841
0.097126059
0.13032785
0.15327965
0.19918144
0.2219362
0.25673318
nan
0.30799997
-0.10266667
-0.07333333
-0.044000007
-0.014666669
0.014666662
0.043999992
0.07333333
0.10266665
0.132
0.16133332
0.19066665
0.21999997
0.24933332
0.27866665
0.30799997
0.33733332
-0.51333332
-0.48399997
-0.45466667
-0.42533332
-0.39600003
-0.36666667
-0.33733332
-0.30800003
-0.27866668
-0.24933334
-0.22000001
-0.19066669
-0.16133334
-0.13200001
-0.10266669
-0.073333338
-0.48399997
-0.45940635
-0.42469501
-0.39524254
-0.36497316
-0.33739606
-0.29777423
-0.25969514
-0.24757399
-0.22804497
-0.18759547
-0.17182542
-0.1285215
-0.10678589
-0.075067952
-0.044
-0.45466667
-0.42036918
-0.39719117
-0.36201084
-0.32224402
-0.30075866
-0.2774584
-0.24416614
-0.205798
-0.17145297
-0.16122785
-0.12865055
-0.098580934
-0.07122387
-0.049652617
-0.014666677
-0.42533332
-0.39712262
-0.37172484
-0.34215367
-0.30818191
-0.27772593
-0.25970972
-0.22250192
-0.19215234
-0.15888469
-0.11715523
-0.10031427
-0.057015877
-0.04184787
-0.017200749
nan
-0.39600003
-0.36241063
-0.34130144
-0.31089115
-0.27606118
-0.24916039
-0.24412368
-0.20464987
-0.14117084
-0.1292183
-0.10466323
-0.064653173
-0.044221606
-0.017425621
-0.0042299544
0.043999992
-0.36666667
-0.332555
-0.30708554
-0.26651192
-0.26697963
-0.22276443
-0.20987891
-0.14139648
-0.1351857
-0.10700969
-0.067163825
-0.061717231
-0.014685586
0.034365587
0.043175653
0.073333323
-0.33733332
-0.30010137
-0.26538402
-0.24521625
-0.244423
-0.22990406
-0.17204557
-0.14072731
-0.10558821
-0.074821934
-0.049671054
-0.02641784
0.00062614545
0.048119605
0.080154642
0.10266666
-0.30800003
-0.28007951
-0.26568741
-0.21775906
-0.19216567
-0.16986793
-0.15610947
-0.10153453
-0.062696919
-0.057034139
nan
0.011455007
0.027741598
0.068427928
0.097303793
0.13199998
-0.27866668
-0.25729969
-0.22603917
-0.21372491
-0.15949805
nan
-0.09374088
-0.081580743
-0.035853513
-0.016560825
0.031878509
0.034356084
0.060896892
0.083083607
0.11617954
0.16133332
-0.24933334
-0.23017047
-0.18314148
-0.16738489
-0.10562255
-0.11330879
-0.077767625
-0.052465208
0.0098193958
0.022096552
0.039258245
nan
0.10230187
0.14404237
0.16074899
0.19066666
-0.22000001
-0.18656817
-0.15957783
-0.13027988
-0.078873083
nan
-0.053332914
-0.0072354018
0.011736067
0.03960355
nan
0.10105634
0.12658995
0.15571423
0.18627463
0.21999998
-0.19066669
-0.15205544
-0.13681754
-0.11595855
-0.098302945
-0.054219134
-0.012428617
0.014480681
0.052467953
0.07373035
0.11412632
0.11308474
0.17795396
0.18796873
0.22174518
0.24933331
-0.16133334
-0.13463533
-0.09361928
-0.070463426
-0.027522786
-0.014305071
0.013337455
0.050019629
0.079190075
0.098530352
0.13365862
0.17522983
0.19779643
0.20984463
0.25998941
0.27866668
-0.13200001
-0.098161951
-0.066893339
-0.046279479
-0.0032929799
0.014825861
0.043294881
0.083395667
0.10027629
0.1290586
0.14054859
0.18848932
0.20611785
0.24734889
0.27739319
0.30799997
-0.10266669
-0.072203986
-0.051241204
-0.015581232
0.013673503
0.051109955
0.07318116
0.10314056
0.12609059
0.16520225
0.19700727
0.21823059
0.25671938
0.28221649
0.3096205
0.33733332
-0.073333338
-0.044
-0.014666677
0.014666662
0.043999992
0.073333323
0.10266666
0.13199998
0.16133332
0.19066666
0.21999998
0.24933331
0.27866668
0.30799997
0.33733332
0.36666667
-0.484
-0.45466664
-0.42533335
-0.396
-0.36666667
-0.33733335
-0.308
-0.27866668
-0.24933334
-0.22
-0.19066668
-0.16133335
-0.132
-0.10266668
-0.073333353
-0.044
-0.45466664
-0.41721389
-0.39458567
-0.36458626
-0.34492856
-0.3166621
-0.26674312
-0.241448
-0.2353961
-0.18958396
-0.17045468
-0.13153628
-0.10337009
-0.071227349
-0.04917378
-0.014666662
-0.42533335
-0.40197638
-0.35876608
-0.328942
-0.2978498
-0.28207901
-0.24536373
-0.21994914
-0.19715677
-0.18050593
-0.13074432
-0.11936381
-0.063229062
-0.028847959
-0.020439887
0.014666662
-0.396
-0.37234166
-0.32920262
-0.30667391
-0.26621643
-0.24699105
-0.24306911
-0.17622016
-0.16220096
-0.13877405
-0.098595791
-0.06577719
-0.041279245
-0.010189799
0.0007459448
0.044
-0.36666667
-0.34076077
-0.30281648
-0.27537623
-0.27378443
-0.22018334
-0.17774621
-0.14715888
-0.14603035
-0.11655386
-0.065654837
-0.038649239
-0.013424788
0.01563604
0.051055327
0.07333333
-0.33733335
-0.3145403
-0.28660113
-0.24926703
-0.23303793
-0.19875777
-0.16089138
-0.12732781
-0.092882924
-0.084043577
-0.039193474
0.0014183668
0.018509971
0.041454576
0.067483455
0.10266666
-0.308
-0.28536293
-0.25366768
-0.22108421
-0.18269333
-0.15300117
-0.14134769
-0.090589643
-0.072101228
-0.039344713
-0.022056853
-0.003600612
0.068033807
0.065419815
0.10282133
0.132
-0.27866668
-0.23845203
-0.23576827
-0.18768454
-0.17874832
-0.13448928
-0.12002319
-0.080181703
-0.043243792
-0.0047854288
-0.0043048253
0.044415955
0.057005681
0.092427589
0.12371226
0.16133332
-0.24933334
-0.2258811
-0.18430126
-0.17324099
-0.10644177
-0.10432857
-0.093939692
-0.049677871
-0.0033404951
0.010262028
0.056311436
0.076222062
0.10932142
0.13528089
0.15803389
0.19066666
-0.22
-0.1825033
-0.14352332
-0.15768589
-0.090887181
-0.07540305
-0.038693771
-0.0041357465
0.024275037
0.037098624
0.07597138
0.096685685
0.12282201
0.17399199
nan
0.22
-0.19066668
-0.15722762
-0.12676369
-0.092428721
nan
-0.027961871
-0.012993601
0.010033745
0.044215087
0.068046853
0.08396811
0.13014217
0.16639116
0.18058349
0.21533917
0.24933332
-0.16133335
-0.13560323
-0.10349781
-0.077840701
-0.025911355
-0.02831845
0.019583251
0.044964649
nan
0.11217551
0.13919544
0.15818958
0.20024429
0.21945424
0.25061333
0.27866665
-0.132
-0.10981748
-0.07336089
-0.040992647
-0.025168426
0.017427567
nan
nan
0.10374264
0.12836179
0.16186303
0.21362403
0.22568358
0.24904189
0.27868527
0.308
-0.10266668
-0.072203688
-0.046055522
-0.0041595823
0.024512393
0.043502346
nan
0.11233804
0.13458705
0.16510111
0.19146086
0.22073981
0.23895465
0.28054866
0.31206167
0.33733332
-0.073333353
-0.046068445
-0.010116196
0.02439459
0.045340881
0.074604169
0.10649605
0.12967511
0.1629886
0.18974838
0.23094061
0.23995166
0.28220615
0.32009763
0.34060937
0.36666664
-0.044
-0.014666662
0.014666662
0.044
0.07333333
0.10266666
0.132
0.16133332
0.19066666
0.22
0.24933332
0.27866665
0.308
0.33733332
0.36666664
0.396
-0.45466667
-0.42533332
-0.39600003
-0.36666667
-0.33733335
-0.30800003
-0.27866668
-0.24933335
-0.22000001
-0.19066668
-0.16133335
-0.13200003
-0.10266668
-0.073333353
-0.04400003
-0.014666677
-0.42533332
-0.39288697
-0.371806
-0.33992648
-0.31430528
-0.28011397
-0.2476397
-0.21915177
-0.19007073
-0.17328008
-0.13405442
-0.11474278
-0.081515983
-0.048840739
-0.026116531
0.014666662
-0.39600003
-0.37409407
-0.34267226
-0.29361936
-0.27846098
-0.25093582
-0.21225762
-0.19833471
-0.15811226
-0.13420454
-0.094457544
-0.074934572
-0.037045315
-0.017809862
0.018179532
0.043999985
-0.36666667
-0.34707272
-0.31904218
-0.2767505
-0.23197922
-0.22504739
-0.18629839
-0.16339149
-0.13922535
-0.075643338
-0.07159777
-0.041930828
-0.034132991
0.01225135
0.038696658
0.073333323
-0.33733335
-0.29723674
-0.27701938
-0.25695828
-0.23055945
-0.1716567
-0.14779326
-0.12026248
-0.085499473
-0.097031213
-0.060611017
-0.014374068
0.002055113
0.058004953
0.078389935
0.10266665
-0.30800003
-0.27440783
-0.24290104
nan
-0.1950085
-0.16626444
-0.12809162
-0.11054206
-0.080487326
-0.029062796
-0.020132082
-0.0083672171
0.034910351
0.063269049
0.11297373
0.13199998
-0.27866668
-0.25528887
-0.22756232
-0.18325882
-0.16235137
-0.13080828
-0.11610118
-0.082973532
-0.011760194
-0.036854465
0.00084012095
0.043100379
0.082314767
0.1027382
0.12614022
0.16133332
-0.24933335
-0.20953985
-0.20070107
-0.13266601
-0.14726242
-0.10103592
-0.043273911
-0.039871585
-0.021941459
0.02698384
0.063938975
0.089693442
0.10905626
0.13512738
0.14424762
0.19066665
-0.22000001
-0.19513713
-0.17020409
-0.12483128
-0.12258106
-0.076227009
-0.037588269
-0.016639633
0.018637018
0.035981044
0.087883838
0.10345731
0.1413952
0.15865396
0.20045128
0.21999998
-0.19066668
-0.16469811
-0.13494715
-0.09114752
-0.095490225
-0.041797336
-0.014664208
nan
nan
0.070021488
0.086864054
0.14205933
0.16149813
0.19718385
0.22615919
0.24933332
-0.16133335
-0.1316015
-0.090340309
-0.066436879
-0.046338238
-0.022050699
0.017898865
nan
0.073508672
0.10025015
0.13275024
0.1731841
0.19999911
0.22149132
0.2667926
0.27866665
-0.13200003
-0.10246336
-0.073408432
-0.058032736
-0.016700519
0.01870539
0.043144748
nan
nan
0.13162799
0.16012697
0.19046581
0.2165613
0.25004259
0.27520537
0.30799997
-0.10266668
-0.082325943
-0.037280187
-0.0081093293
0.0087509351
0.041831214
nan
0.10441208
0.13064064
0.14433824
0.19521978
0.21905456
0.25802892
0.2754091
0.31098422
0.33733332
-0.073333353
-0.045270123
-0.016567977
0.028972276
0.043444362
0.073468678
0.10143797
0.13446747
nan
0.18869728
0.21619771
0.25904572
0.27634606
0.30122787
0.3346912
0.36666664
-0.04400003
-0.024365578
0.012070538
0.042662345
0.082951248
0.10589297
0.13424189
0.15892403
0.1956781
0.22359022
0.25018433
0.27809447
0.30690673
0.33898613
0.36121354
0.39599997
-0.014666677
0.014666662
0.043999985
0.073333323
0.10266665
0.13199998
0.16133332
0.19066665
0.21999998
0.24933332
0.27866665
0.30799997
0.33733332
0.36666664
0.39599997
0.42533332
-0.42533332
-0.39599997
-0.36666667
-0.33733332
-0.30800003
-0.27866668
-0.24933334
-0.22000001
-0.19066668
-0.16133334
-0.13200001
-0.10266669
-0.073333338
-0.044000015
-0.014666691
0.014666662
-0.39599997
-0.36204815
-0.33196926
-0.30697247
-0.27489832
-0.24754076
-0.21482307
-0.18078555
-0.16497806
-0.13325039
-0.10618758
-0.07980901
-0.04706835
-0.014712363
0.0086125517
0.044
-0.36666667
-0.34231627
-0.30956021
-0.28018129
-0.25231859
-0.21241623
-0.18623678
-0.16891253
-0.12919781
-0.11506572
-0.098094977
-0.051527631
-0.017999606
0.019024145
0.033361841
0.073333323
-0.33733332
-0.30129904
-0.25171363
-0.25358978
-0.24048281
-0.20838895
-0.17244069
-0.151566
-0.096061945
-0.081244625
-0.054088946
-0.025049485
0.016032876
0.046245217
nan
0.10266666
-0.30800003
-0.27094311
-0.24667987
-0.21863903
-0.18936297
nan
-0.11663867
-0.10368413
-0.084565565
-0.047210429
-0.008004779
0.038015854
0.032724097
0.069850855
0.088242516
0.132
-0.27866668
-0.2565833
-0.21035831
-0.20154458
-0.15473938
-0.13697146
-0.085471228
-0.068476081
-0.043404721
-0.0028420549
0.0039958553
0.033320196
0.069561273
0.088296399
0.12582025
0.16133332
-0.24933334
-0.21954547
-0.19368228
-0.1589676
-0.14770997
-0.12336202
-0.068448037
-0.037888333
-0.015238732
0.010189097
0.048163489
0.073584847
0.10195338
0.11925907
0.15475714
0.19066666
-0.22000001
-0.18225662
-0.16695088
-0.13446948
-0.088361129
-0.051108576
-0.026073446
-0.011100861
-0.003943461
nan
0.079432257
0.12347118
0.14437176
0.17116757
0.18420482
0.21999998
-0.19066668
-0.15397853
-0.13021557
-0.1065641
-0.069454156
-0.044403747
-0.025641015
nan
0.053669631
0.071085811
0.12534364
0.13319951
0.14990507
0.19382399
0.22557636
0.24933332
-0.16133334
-0.12523718
-0.1032888
-0.081798859
-0.052440237
-0.011061021
nan
0.044996258
nan
nan
0.13634646
0.16237955
0.20864637
0.23402855
0.24297276
0.27866668
-0.13200001
-0.09714222
-0.076535664
-0.057835303
-0.023462083
nan
nan
nan
nan
nan
0.16237384
nan
0.21425191
0.25881022
0.27037153
0.30799997
-0.10266669
-0.070105642
-0.045840304
-0.028410066
0.0095788008
nan
nan
nan
0.12934713
0.15942796
nan
0.20206368
0.26309651
0.26969683
0.30545312
0.33733332
-0.073333338
-0.045846354
-0.017934274
0.010485022
0.050006315
nan
nan
0.1288943
0.16056544
0.18432073
0.23208949
0.25984666
0.25364667
0.3062785
0.33025253
0.36666667
-0.044000015
-0.026521208
0.00010605618
0.042283803
nan
0.10032656
nan
0.1644728
0.19358112
0.22023334
0.25190783
0.2776033
0.3003982
0.3338533
0.36590016
0.39599997
-0.014666691
0.0051878639
0.04434621
0.068495594
0.097032547
0.13654982
0.16316596
0.19622003
0.2157166
0.24937564
0.27799499
0.31647512
0.34159496
0.37109023
0.39982587
0.42533332
0.014666662
0.044
0.073333323
0.10266666
0.132
0.16133332
0.19066666
0.21999998
0.24933332
0.27866668
0.30799997
0.33733332
0.36666667
0.39599997
0.42533332
0.45466667
-0.396
-0.36666664
-0.33733335
-0.308
-0.27866668
-0.24933335
-0.22
-0.19066668
-0.16133334
-0.132
-0.10266668
-0.073333353
-0.044
-0.014666677
0.014666647
0.044
-0.36666664
-0.3436653
-0.30130914
-0.27883112
-0.26101348
-0.20343234
-0.19025689
-0.17596176
-0.12434634
-0.085383825
-0.075739838
-0.046343692
-0.023161363
0.00050390005
0.044817816
0.073333338
-0.33733335
-0.30623055
-0.28012702
-0.24123012
-0.22133657
-0.16982919
-0.18282822
-0.14257371
-0.097333625
-0.069500782
-0.038931083
-0.016790658
0.016248256
0.043865003
0.074226089
0.10266666
-0.308
-0.27893212
-0.26902544
-0.2132154
-0.1928018
-0.15698759
-0.13043611
-0.10883135
-0.066975392
-0.039091509
-0.018508207
-0.02396097
0.04837656
0.079171941
0.12356371
0.132
-0.27866668
-0.24116154
-0.21789786
-0.19275253
nan
-0.13171408
-0.10158553
-0.076650731
-0.038740497
-0.0016280223
0.023931146
0.041199733
0.069925711
0.098186977
0.12369952
0.16133332
-0.24933335
-0.23298779
-0.17607431
-0.16726474
-0.10994861
-0.094539262
-0.071397573
-0.041013628
-0.0044155642
0.0087313931
0.066397011
0.078333028
0.092020534
0.1337017
0.14970255
0.19066666
-0.22
-0.19224565
-0.17801976
-0.12687376
-0.092748113
-0.075578943
-0.051405001
-0.00060521351
0.017118195
0.018307624
0.081279263
0.089269944
0.14051989
0.15493229
0.20665585
0.22
-0.19066668
-0.16389714
-0.14907748
-0.11072937
-0.084319375
-0.04168142
0.009814146
0.021204045
0.031313267
0.054842606
0.09596476
0.13817663
0.14880697
0.18255036
0.22486848
0.24933332
-0.16133334
-0.12540649
-0.10614073
-0.082990542
-0.060918964
-0.017495716
0.025304597
0.029958637
0.075928919
0.097723
0.11629353
0.1466594
0.17872764
0.20034473
0.24988198
0.27866668
-0.132
-0.10104476
-0.086098894
-0.049805723
-0.020400271
0.0214101
0.044253383
nan
0.10243945
0.12853859
0.16440894
0.19606188
0.20970991
0.24131678
0.28039575
0.308
-0.10266668
nan
-0.053998195
-0.032960672
0.010675097
0.040517583
0.075111106
nan
nan
0.1588929
nan
0.21842404
0.25302193
0.27519086
0.31058374
0.33733332
-0.073333353
-0.039411809
-0.019749144
0.018661514
nan
0.076132394
0.10495844
0.13215055
0.16120201
nan
0.21824396
0.2424452
0.28303173
0.30990931
0.35184816
0.36666664
-0.044
-0.0082717203
0.020384552
0.051566973
0.079933152
nan
0.13375987
nan
0.19990565
0.22812225
0.24611114
0.27530283
0.28868365
0.3215307
0.37152392
0.396
-0.014666677
0.0025718752
0.03125564
0.087082922
0.10357279
nan
0.15731969
0.19217734
0.21477634
0.24963838
0.28036103
0.30979168
0.34691989
0.37148339
0.40369448
0.42533332
0.014666647
0.045533456
0.069088131
0.092839263
0.13347514
0.15542485
0.19712982
0.23117734
0.25566295
0.28664088
0.31541476
0.33658901
0.36370808
0.39381236
0.43423158
0.45466664
0.044
0.073333338
0.10266666
0.132
0.16133332
0.19066666
0.22
0.24933332
0.27866668
0.308
0.33733332
0.36666664
0.396
0.42533332
0.45466664
0.484
-0.36666667
-0.33733332
-0.30800003
-0.27866668
-0.24933335
-0.22000003
-0.19066668
-0.16133335
-0.13200001
-0.10266668
-0.073333353
-0.04400003
-0.014666677
0.014666647
0.04399997
0.073333323
-0.33733332
-0.30111966
-0.27751034
-0.24987061
-0.21480127
-0.19149821
-0.15639874
-0.13261652
-0.092674173
-0.073571526
-0.034781434
-0.011361318
0.0077895792