# vtk DataFile Version 3.0
Zombie mixed Neumann structured grid
ASCII
DATASET STRUCTURED_POINTS
DIMENSIONS 8 8 8
ORIGIN -1.1 -1.1 -1.1
SPACING 0.31428571428571433 0.31428571428571433 0.31428571428571433
POINT_DATA 512
SCALARS solution float 1
LOOKUP_TABLE default
-3.3000001907348633
-2.9857144355773926
-2.671428680419922
-2.357142925262451
-2.0428571701049805
-1.7285715341567993
-1.4142857789993286
-1.100000023841858
-2.9857144355773926
-2.671428680419922
-2.357142925262451
-2.0428571701049805
-1.7285714149475098
-1.414285659790039
-1.100000023841858
-0.7857142686843872
-2.671428680419922
-2.357142686843872
-2.0428571701049805
-1.7285714149475098
-1.414285659790039
-1.1000001430511475
-0.7857144474983215
-0.4714285135269165
-2.357142925262451
-2.0428571701049805
-1.7285714149475098
-1.4142857789993286
-1.100000262260437
-0.7857140898704529
-0.47142887115478516
-0.15714287757873535
-2.0428571701049805
-1.7285715341567993
-1.4142857789993286
-1.1000001430511475
-0.7857142686843872
-0.47142860293388367
-0.15714293718338013
0.15714287757873535
-1.7285715341567993
-1.4142857789993286
-1.1000001430511475
-0.7857143878936768
-0.47142887115478516
-0.1571429967880249
0.1571425199508667
0.4714285731315613
-1.4142857789993286
-1.1000001430511475
-0.7857145071029663
-0.4714288115501404
-0.15714293718338013
0.1571427583694458
0.4714285135269165
0.7857142686843872
-1.100000023841858
-0.7857142686843872
-0.4714285731315613
-0.15714287757873535
0.15714287757873535
0.4714285731315613
0.7857142686843872
1.100000023841858
-2.9857144355773926
-2.671428680419922
-2.357142925262451
-2.0428571701049805
-1.7285715341567993
-1.414285659790039
-1.1000001430511475
-0.7857142686843872
-2.671428680419922
-2.482434034347534
-2.084439992904663
-1.791090726852417
-1.3948900699615479
-1.0648763179779053
-0.7355931997299194
-0.4714285135269165
-2.357142925262451
-2.105095624923706
-1.6108006238937378
-1.558586835861206
-1.4148694276809692
-0.7486439943313599
-0.5032182931900024
-0.1571425199508667
-2.0428571701049805
-1.6614378690719604
-1.4638354778289795
-0.9324774146080017
-0.8484352827072144
-0.5734186768531799
-0.24196240305900574
0.15714293718338013
-1.7285714149475098
-1.4121830463409424
-1.4265609979629517
-0.9060131311416626
-0.8514508008956909
0.15546856820583344
0.07043742388486862
0.4714288115501404
-1.4142857789993286
-0.9537103772163391
-0.7276511192321777
-0.391356885433197
-0.2171512097120285
0.11543575674295425
0.2781471014022827
0.7857145071029663
-1.100000023841858
-0.8306809663772583
-0.45488736033439636
-0.2629186511039734
0.42014530301094055
0.3777828812599182
0.8357589244842529
1.100000023841858
-0.7857142686843872
-0.4714285135269165
-0.1571427583694458
0.15714293718338013
0.4714288115501404
0.7857145071029663
1.1000001430511475
1.4142857789993286
-2.671428680419922
-2.357142686843872
-2.0428571701049805
-1.7285714149475098
-1.414285659790039
-1.1000001430511475
-0.7857144474983215
-0.4714285135269165
-2.357142925262451
-1.8030691146850586
-1.729862093925476
-1.414219617843628
-1.4149842262268066
-0.748056173324585
-0.25502899289131165
-0.1571427583694458
-2.0428571701049805
-1.5311906337738037
-1.5074247121810913
-1.1264065504074097
-0.9163928031921387
-0.7339674234390259
0.04749269038438797
0.1571429967880249
-1.7285714149475098
-1.3171743154525757
-1.1198999881744385
-0.5998205542564392
-0.8759230971336365
-0.3735524117946625
0.34132835268974304
0.47142863273620605
-1.414285659790039
-0.8288486003875732
-0.5705356597900391
0.0
0.0
0.2786099910736084
0.3511611819267273
0.7857140898704529
-1.1000001430511475
-0.7191554307937622
-0.5602267384529114
0.0
0.0
0.011647655628621578
1.1194740533828735
1.1000001430511475
-0.7857145071029663
-0.16757838428020477
-0.350282222032547
-0.19193580746650696
0.44393226504325867
0.7535459995269775
1.1480302810668945
1.4142857789993286
-0.4714285731315613
-0.1571425199508667
0.1571429967880249
0.47142887115478516
0.7857143878936768
1.1000001430511475
1.4142857789993286
1.7285715341567993
-2.357142925262451
-2.0428571701049805
-1.7285714149475098
-1.4142857789993286
-1.1000001430511475
-0.7857143878936768
-0.47142887115478516
-0.15714287757873535
-2.0428571701049805
-1.7023694515228271
-1.3680049180984497
-1.4988317489624023
-1.061363697052002
-0.8485382199287415
-0.1949237734079361
0.15714293718338013
-1.7285714149475098
-1.7233976125717163
-1.1303069591522217
-0.21589931845664978
-0.8270359635353088
-0.5420777201652527
0.0956784039735794
0.47142887115478516
-1.4142857789993286
-0.9166601896286011
-1.0503238439559937
0.0
0.0
-0.4657787084579468
0.4750959277153015
0.7857142686843872
-1.1000001430511475
-0.7000811696052551
-0.687813401222229
-0.071286141872406
-0.24543341994285583
0.7811513543128967
0.727519690990448
1.1000001430511475
-0.7857140898704529
-0.3894330561161041
0.10574410855770111
0.0
0.0
0.28521716594696045
0.7926629185676575
1.414285659790039
-0.4714288115501404
0.06565506756305695
-0.023322824388742447
0.7856387495994568
0.1251363605260849
0.8245623111724854
1.3336623907089233
1.7285714149475098
-0.15714287757873535
0.15714293718338013
0.47142860293388367
0.7857142686843872
1.1000001430511475
1.4142857789993286
1.7285715341567993
2.0428571701049805
-2.0428571701049805
-1.7285714149475098
-1.414285659790039
-1.1000001430511475
-0.7857142686843872
-0.47142887115478516
-0.15714293718338013
0.15714287757873535
-1.7285715341567993
-1.6668405532836914
-1.652639627456665
-0.8297809362411499
-0.26472508907318115
-0.4276566505432129
0.37365567684173584
0.4714288115501404
-1.4142857789993286
-0.9607565999031067
-1.298168659210205
0.0
0.0
0.16000016033649445
0.3813832402229309
0.7857143878936768
-1.1000001430511475
-0.957367479801178
-0.6186136603355408
0.0
0.0
0.9769595861434937
0.894927442073822
1.1000001430511475
-0.7857142686843872
-0.3241156041622162
-0.07772848010063171
0.0
0.0
1.11124849319458
1.1781442165374756
1.4142857789993286
-0.47142863273620605
-0.3006417751312256
0.3695412576198578
0.8500456213951111
1.1755414009094238
1.1584458351135254
1.573649525642395
1.7285714149475098
-0.15714293718338013
0.01760278269648552
0.04607927054166794
0.3275929093360901
0.8899785876274109
1.519830584526062
1.9287586212158203
2.0428571701049805
0.15714287757873535
0.47142887115478516
0.7857140898704529
1.100000262260437
1.4142857789993286
1.7285714149475098
2.0428571701049805
2.357142925262451
-1.7285715341567993
-1.4142857789993286
-1.1000001430511475
-0.7857140898704529
-0.47142863273620605
-0.1571429967880249
0.1571427583694458
0.4714285731315613
-1.4142857789993286
-1.2561473846435547
-0.9255040884017944
-0.9052767753601074
-0.39569544792175293
0.21364641189575195
0.8528040051460266
0.7857145071029663
-1.1000001430511475
-1.0116099119186401
0.07199956476688385
0.0
0.0
0.5351914763450623
0.8391854166984558
1.1000001430511475
-0.7857143878936768
-0.8487705588340759
-0.09609329700469971
0.0
0.0
0.6944817900657654
1.1252803802490234
1.4142857789993286
-0.47142887115478516
-0.20939691364765167
0.036756597459316254
0.0
0.0
1.0259642601013184
1.5758572816848755
1.7285714149475098
-0.1571429967880249
-0.13529545068740845
0.18707965314388275
0.77349853515625
0.8553190231323242
1.4930105209350586
1.700722336769104
2.0428571701049805
0.1571425199508667
0.5449380874633789
0.6937639713287354
1.175241231918335
1.4980932474136353
1.5563222169876099
2.192516803741455
2.357142925262451
0.4714285135269165
0.7857144474983215
1.1000001430511475
1.414285659790039
1.7285714149475098
2.0428571701049805
2.357142686843872
2.671428680419922
-1.4142857789993286
-1.100000023841858
-0.7857145071029663
-0.4714288115501404
-0.15714293718338013
0.1571425199508667
0.4714285135269165
0.7857142686843872
-1.1000001430511475
-0.9053968787193298
-0.42629408836364746
0.1497127264738083
0.3253740668296814
0.13885554671287537
0.7944124341011047
1.1000001430511475
-0.7857145071029663
-0.5206372141838074
-0.01839582994580269
0.0
0.0
0.6375507712364197
0.9354592561721802
1.4142857789993286
-0.4714288115501404
-0.282356858253479
0.4764482080936432
0.0
0.0
0.9287916421890259
1.257957935333252
1.7285715341567993
-0.15714293718338013
0.167730912566185
0.28355661034584045
1.0411566495895386
1.1312551498413086
1.2632575035095215
1.7271311283111572
2.0428571701049805
0.1571427583694458
0.46979889273643494
0.5105189085006714
1.1588555574417114
1.1066615581512451
1.8254832029342651
1.8911949396133423
2.357142925262451
0.4714285135269165
0.7231243848800659
0.971889317035675
1.4188121557235718
1.5460509061813354
2.13604474067688
2.172891855239868
2.671428680419922
0.7857142686843872
1.100000023841858
1.414285659790039
1.7285714149475098
2.0428571701049805
2.357142925262451
2.671428680419922
2.9857144355773926
-1.100000023841858
-0.7857142686843872
-0.4714285731315613
-0.15714287757873535
0.15714287757873535
0.4714285731315613
0.7857142686843872
1.100000023841858
-0.7857142686843872
-0.4714285135269165
-0.1571425199508667
0.15714293718338013
0.4714288115501404
0.7857145071029663
1.100000023841858
1.4142857789993286
-0.4714285731315613
-0.1571427583694458
0.1571429967880249
0.47142863273620605
0.7857140898704529
1.1000001430511475
1.4142857789993286
1.7285715341567993
-0.15714287757873535
0.15714293718338013
0.47142887115478516
0.7857142686843872
1.1000001430511475
1.414285659790039
1.7285714149475098
2.0428571701049805
0.15714287757873535
0.47142887115478516
0.7857143878936768
1.1000001430511475
1.4142857789993286
1.7285714149475098
2.0428571701049805
2.357142925262451
0.4714285135269165
0.7857144474983215
1.1000001430511475
1.414285659790039
1.7285714149475098
2.0428571701049805
2.357142686843872
2.671428680419922
0.7857142686843872
1.1000001430511475
1.414285659790039
1.7285715341567993
2.0428571701049805
2.357142925262451
2.671428680419922
2.9857144355773926
1.100000023841858
1.4142857789993286
1.7285715341567993
2.0428571701049805
2.357142925262451
2.671428680419922
2.9857144355773926
3.3000001907348633
SCALARS exact float 1
LOOKUP_TABLE default
-3.3000000715255737
-2.985714316368103
-2.671428620815277
-2.35714291036129
-2.0428571850061417
-1.7285714745521545
-1.4142857789993286
-1.100000023841858
-2.985714316368103
-2.6714285612106323
-2.3571428656578064
-2.0428571552038193
-1.728571429848671
-1.4142857193946838
-1.100000023841858
-0.7857142686843872
-2.671428620815277
-2.3571428656578064
-2.0428571701049805
-1.7285714596509933
-1.414285734295845
-1.100000023841858
-0.785714328289032
-0.4714285731315613
-2.35714291036129
-2.0428571552038193
-1.7285714596509933
-1.4142857491970062
-1.100000023841858
-0.7857143133878708
-0.47142861783504486
-0.15714286267757416
-2.0428571850061417
-1.728571429848671
-1.414285734295845
-1.100000023841858
-0.7857142984867096
-0.4714285880327225
-0.15714289247989655
0.15714286267757416
-1.7285714745521545
-1.4142857193946838
-1.100000023841858
-0.7857143133878708
-0.4714285880327225
-0.15714287757873535
0.15714281797409058
0.4714285731315613
-1.4142857789993286
-1.100000023841858
-0.785714328289032
-0.47142861783504486
-0.15714289247989655
0.15714281797409058
0.4714285135269165
0.7857142686843872
-1.100000023841858
-0.7857142686843872
-0.4714285731315613
-0.15714286267757416
0.15714286267757416
0.4714285731315613
0.7857142686843872
1.100000023841858
-2.985714316368103
-2.6714285612106323
-2.3571428656578064
-2.0428571552038193
-1.728571429848671
-1.4142857193946838
-1.100000023841858
-0.7857142686843872
-2.6714285612106323
-2.3571428060531616
-2.0428571105003357
-1.7285714000463486
-1.4142856746912003
-1.0999999642372131
-0.7857142686843872
-0.4714285135269165
-2.3571428656578064
-2.0428571105003357
-1.7285714149475098
-1.4142857044935226
-1.0999999791383743
-0.7857142686843872
-0.4714285731315613
-0.15714281797409058
-2.0428571552038193
-1.7285714000463486
-1.4142857044935226
-1.0999999940395355
-0.7857142686843872
-0.4714285582304001
-0.15714286267757416
0.15714289247989655
-1.728571429848671
-1.4142856746912003
-1.0999999791383743
-0.7857142686843872
-0.4714285433292389
-0.15714283287525177
0.15714286267757416
0.47142861783504486
-1.4142857193946838
-1.0999999642372131
-0.7857142686843872
-0.4714285582304001
-0.15714283287525177
0.15714287757873535
0.4714285731315613
0.785714328289032
-1.100000023841858
-0.7857142686843872
-0.4714285731315613
-0.15714286267757416
0.15714286267757416
0.4714285731315613
0.7857142686843872
1.100000023841858
-0.7857142686843872
-0.4714285135269165
-0.15714281797409058
0.15714289247989655
0.47142861783504486
0.785714328289032
1.100000023841858
1.4142857789993286
-2.671428620815277
-2.3571428656578064
-2.0428571701049805
-1.7285714596509933
-1.414285734295845
-1.100000023841858
-0.785714328289032
-0.4714285731315613
-2.3571428656578064
-2.0428571105003357
-1.7285714149475098
-1.4142857044935226
-1.0999999791383743
-0.7857142686843872
-0.4714285731315613
-0.15714281797409058
-2.0428571701049805
-1.7285714149475098
-1.4142857193946838
-1.1000000089406967
-0.7857142835855484
-0.4714285731315613
-0.15714287757873535
0.15714287757873535
-1.7285714596509933
-1.4142857044935226
-1.1000000089406967
-0.7857142984867096
-0.4714285731315613
-0.15714286267757416
0.15714283287525177
0.4714285880327225
-1.414285734295845
-1.0999999791383743
-0.7857142835855484
-0.4714285731315613
-0.15714284777641296
0.15714286267757416
0.4714285582304001
0.7857143133878708
-1.100000023841858
-0.7857142686843872
-0.4714285731315613
-0.15714286267757416
0.15714286267757416
0.4714285731315613
0.7857142686843872
1.100000023841858
-0.785714328289032
-0.4714285731315613
-0.15714287757873535
0.15714283287525177
0.4714285582304001
0.7857142686843872
1.0999999642372131
1.4142857193946838
-0.4714285731315613
-0.15714281797409058
0.15714287757873535
0.4714285880327225
0.7857143133878708
1.100000023841858
1.4142857193946838
1.7285714745521545
-2.35714291036129
-2.0428571552038193
-1.7285714596509933
-1.4142857491970062
-1.100000023841858
-0.7857143133878708
-0.47142861783504486
-0.15714286267757416
-2.0428571552038193
-1.7285714000463486
-1.4142857044935226
-1.0999999940395355
-0.7857142686843872
-0.4714285582304001
-0.15714286267757416
0.15714289247989655
-1.7285714596509933
-1.4142857044935226
-1.1000000089406967
-0.7857142984867096
-0.4714285731315613
-0.15714286267757416
0.15714283287525177
0.4714285880327225
-1.4142857491970062
-1.0999999940395355
-0.7857142984867096
-0.4714285880327225
-0.15714286267757416
0.15714284777641296
0.4714285433292389
0.7857142984867096
-1.100000023841858
-0.7857142686843872
-0.4714285731315613
-0.15714286267757416
0.15714286267757416
0.4714285731315613
0.7857142686843872
1.100000023841858
-0.7857143133878708
-0.4714285582304001
-0.15714286267757416
0.15714284777641296
0.4714285731315613
0.7857142835855484
1.0999999791383743
1.414285734295845
-0.47142861783504486
-0.15714286267757416
0.15714283287525177
0.4714285433292389
0.7857142686843872
1.0999999791383743
1.4142856746912003
1.728571429848671
-0.15714286267757416
0.15714289247989655
0.4714285880327225
0.7857142984867096
1.100000023841858
1.414285734295845
1.728571429848671
2.0428571850061417
-2.0428571850061417
-1.728571429848671
-1.414285734295845
-1.100000023841858
-0.7857142984867096
-0.4714285880327225
-0.15714289247989655
0.15714286267757416
-1.728571429848671
-1.4142856746912003
-1.0999999791383743
-0.7857142686843872
-0.4714285433292389
-0.15714283287525177
0.15714286267757416
0.47142861783504486
-1.414285734295845
-1.0999999791383743
-0.7857142835855484
-0.4714285731315613
-0.15714284777641296
0.15714286267757416
0.4714285582304001
0.7857143133878708
-1.100000023841858
-0.7857142686843872
-0.4714285731315613
-0.15714286267757416
0.15714286267757416
0.4714285731315613
0.7857142686843872
1.100000023841858
-0.7857142984867096
-0.4714285433292389
-0.15714284777641296
0.15714286267757416
0.4714285880327225
0.7857142984867096
1.0999999940395355
1.4142857491970062
-0.4714285880327225
-0.15714283287525177
0.15714286267757416
0.4714285731315613
0.7857142984867096
1.1000000089406967
1.4142857044935226
1.7285714596509933
-0.15714289247989655
0.15714286267757416
0.4714285582304001
0.7857142686843872
1.0999999940395355
1.4142857044935226
1.7285714000463486
2.0428571552038193
0.15714286267757416
0.47142861783504486
0.7857143133878708
1.100000023841858
1.4142857491970062
1.7285714596509933
2.0428571552038193
2.35714291036129
-1.7285714745521545
-1.4142857193946838
-1.100000023841858
-0.7857143133878708
-0.4714285880327225
-0.15714287757873535
0.15714281797409058
0.4714285731315613
-1.4142857193946838
-1.0999999642372131
-0.7857142686843872
-0.4714285582304001
-0.15714283287525177
0.15714287757873535
0.4714285731315613
0.785714328289032
-1.100000023841858
-0.7857142686843872
-0.4714285731315613
-0.15714286267757416
0.15714286267757416
0.4714285731315613
0.7857142686843872
1.100000023841858
-0.7857143133878708
-0.4714285582304001
-0.15714286267757416
0.15714284777641296
0.4714285731315613
0.7857142835855484
1.0999999791383743
1.414285734295845
-0.4714285880327225
-0.15714283287525177
0.15714286267757416
0.4714285731315613
0.7857142984867096
1.1000000089406967
1.4142857044935226
1.7285714596509933
-0.15714287757873535
0.15714287757873535
0.4714285731315613
0.7857142835855484
1.1000000089406967
1.4142857193946838
1.7285714149475098
2.0428571701049805
0.15714281797409058
0.4714285731315613
0.7857142686843872
1.0999999791383743
1.4142857044935226
1.7285714149475098
2.0428571105003357
2.3571428656578064
0.4714285731315613
0.785714328289032
1.100000023841858
1.414285734295845
1.7285714596509933
2.0428571701049805
2.3571428656578064
2.671428620815277
-1.4142857789993286
-1.100000023841858
-0.785714328289032
-0.47142861783504486
-0.15714289247989655
0.15714281797409058
0.4714285135269165
0.7857142686843872
-1.100000023841858
-0.7857142686843872
-0.4714285731315613
-0.15714286267757416
0.15714286267757416
0.4714285731315613
0.7857142686843872
1.100000023841858
-0.785714328289032
-0.4714285731315613
-0.15714287757873535
0.15714283287525177
0.4714285582304001
0.7857142686843872
1.0999999642372131
1.4142857193946838
-0.47142861783504486
-0.15714286267757416
0.15714283287525177
0.4714285433292389
0.7857142686843872
1.0999999791383743
1.4142856746912003
1.728571429848671
-0.15714289247989655
0.15714286267757416
0.4714285582304001
0.7857142686843872
1.0999999940395355
1.4142857044935226
1.7285714000463486
2.0428571552038193
0.15714281797409058
0.4714285731315613
0.7857142686843872
1.0999999791383743
1.4142857044935226
1.7285714149475098
2.0428571105003357
2.3571428656578064
0.4714285135269165
0.7857142686843872
1.0999999642372131
1.4142856746912003
1.7285714000463486
2.0428571105003357
2.3571428060531616
2.6714285612106323
0.7857142686843872
1.100000023841858
1.4142857193946838
1.728571429848671
2.0428571552038193
2.3571428656578064
2.6714285612106323
2.985714316368103
-1.100000023841858
-0.7857142686843872
-0.4714285731315613
-0.15714286267757416
0.15714286267757416
0.4714285731315613
0.7857142686843872
1.100000023841858
-0.7857142686843872
-0.4714285135269165
-0.15714281797409058
0.15714289247989655
0.47142861783504486
0.785714328289032
1.100000023841858
1.4142857789993286
-0.4714285731315613
-0.15714281797409058
0.15714287757873535
0.4714285880327225
0.7857143133878708
1.100000023841858
1.4142857193946838
1.7285714745521545
-0.15714286267757416
0.15714289247989655
0.4714285880327225
0.7857142984867096
1.100000023841858
1.414285734295845
1.728571429848671
2.0428571850061417
0.15714286267757416
0.47142861783504486
0.7857143133878708
1.100000023841858
1.4142857491970062
1.7285714596509933
2.0428571552038193
2.35714291036129
0.4714285731315613
0.785714328289032
1.100000023841858
1.414285734295845
1.7285714596509933
2.0428571701049805
2.3571428656578064
2.671428620815277
0.7857142686843872
1.100000023841858
1.4142857193946838
1.728571429848671
2.0428571552038193
2.3571428656578064
2.6714285612106323
2.985714316368103
1.100000023841858
1.4142857789993286
1.7285714745521545
2.0428571850061417
2.35714291036129
2.671428620815277
2.985714316368103
3.3000000715255737
SCALARS abs_error float 1
LOOKUP_TABLE default
1.1920928955078125e-07
1.1920928955078125e-07
5.960464477539063e-08
1.4901161193847656e-08
1.4901161193847656e-08
5.960464477539063e-08
0.0
0.0
1.1920928955078125e-07
1.1920928955078125e-07
5.960464477539063e-08
1.4901161193847656e-08
1.4901161193847656e-08
5.960464477539063e-08
0.0
0.0
5.960464477539063e-08
1.7881393432617188e-07
0.0
4.470348358154297e-08
7.450580596923828e-08
1.1920928955078125e-07
1.1920928955078125e-07
5.960464477539063e-08
1.4901161193847656e-08
1.4901161193847656e-08
4.470348358154297e-08
2.9802322387695312e-08
2.384185791015625e-07
2.2351741790771484e-07
2.5331974029541016e-07
1.4901161193847656e-08
1.4901161193847656e-08
1.043081283569336e-07
4.470348358154297e-08
1.1920928955078125e-07
2.9802322387695312e-08
1.4901161193847656e-08
4.470348358154297e-08
1.4901161193847656e-08
5.960464477539063e-08
5.960464477539063e-08
1.1920928955078125e-07
7.450580596923828e-08
2.8312206268310547e-07
1.1920928955078125e-07
2.980232238769531e-07
0.0
0.0
1.1920928955078125e-07
1.7881393432617188e-07
1.9371509552001953e-07
4.470348358154297e-08
5.960464477539063e-08
0.0
0.0
0.0
0.0
0.0
1.4901161193847656e-08
1.4901161193847656e-08
0.0
0.0
0.0
1.1920928955078125e-07
1.1920928955078125e-07
5.960464477539063e-08
1.4901161193847656e-08
1.043081283569336e-07
5.960464477539063e-08
1.1920928955078125e-07
0.0
1.1920928955078125e-07
0.12529122829437256
0.04158288240432739
0.06251932680606842
0.019395604729652405
0.03512364625930786
0.05012106895446777
0.0
5.960464477539063e-08
0.06223851442337036
0.11777079105377197
0.1443011313676834
0.3148694485425949
0.037070274353027344
0.03178972005844116
2.980232238769531e-07
1.4901161193847656e-08
0.06713353097438812
0.04954977333545685
0.1675225794315338
0.06272101402282715
0.10199011862277985
0.08481954038143158
4.470348358154297e-08
1.4901161193847656e-08
0.0021026283502578735
0.32656101882457733
0.12029886245727539
0.380022257566452
0.3126114010810852
0.08670543879270554
1.9371509552001953e-07
5.960464477539063e-08
0.14628958702087402
0.05806314945220947
0.08007167279720306
0.06000837683677673
0.0417071208357811
0.19328147172927856
1.7881393432617188e-07
0.0
0.044966697692871094
0.016541212797164917
0.10577578842639923
0.2630024403333664
0.09364569187164307
0.05004465579986572
0.0
0.0
0.0
5.960464477539063e-08
4.470348358154297e-08
1.9371509552001953e-07
1.7881393432617188e-07
1.1920928955078125e-07
0.0
5.960464477539063e-08
1.7881393432617188e-07
0.0
4.470348358154297e-08
7.450580596923828e-08
1.1920928955078125e-07
1.1920928955078125e-07
5.960464477539063e-08
5.960464477539063e-08
0.2397879958152771
0.0012906789779663086
6.608664989471436e-05
0.3149842470884323
0.037658095359802246
0.21639958024024963
5.960464477539063e-08
0.0
0.19738078117370605
0.09313899278640747
0.02640654146671295
0.13067851960659027
0.2625388503074646
0.20463556796312332
1.1920928955078125e-07
4.470348358154297e-08
0.09711138904094696
0.01989997923374176
0.18589374423027039
0.4044945240020752
0.21640954911708832
0.18418551981449127
4.470348358154297e-08
7.450580596923828e-08
0.2711513787508011
0.21517862379550934
0.0
0.0
0.12146712839603424
0.12026737630367279
2.2351741790771484e-07
1.1920928955078125e-07
0.066558837890625
0.0887981653213501
0.0
0.0
0.4597809175029397
0.33375978469848633
1.1920928955078125e-07
1.7881393432617188e-07
0.3038501888513565
0.19313934445381165
0.34907864034175873
0.02749629318714142
0.03216826915740967
0.048030316829681396
5.960464477539063e-08
0.0
2.980232238769531e-07
1.1920928955078125e-07
2.8312206268310547e-07
7.450580596923828e-08
1.1920928955078125e-07
5.960464477539063e-08
5.960464477539063e-08
1.4901161193847656e-08
1.4901161193847656e-08
4.470348358154297e-08
2.9802322387695312e-08
1.1920928955078125e-07
7.450580596923828e-08
2.5331974029541016e-07
1.4901161193847656e-08
1.4901161193847656e-08
0.026201948523521423
0.04628078639507294
0.3988317549228668
0.27564942836761475
0.37710966169834137
0.03778091073036194
4.470348358154297e-08
4.470348358154297e-08
0.30911190807819366
0.030306950211524963
0.5698149800300598
0.35560739040374756
0.38493485748767853
0.06146442890167236
2.8312206268310547e-07
2.9802322387695312e-08
0.18333980441093445
0.26460954546928406
0.0
0.0
0.6229215562343597
0.003667384386062622
2.9802322387695312e-08
1.1920928955078125e-07
0.08563309907913208
0.21638482809066772
0.08585672080516815
0.40257628262043
0.30972278118133545
0.05819457769393921
1.1920928955078125e-07
2.2351741790771484e-07
0.08199550211429596
0.26288697123527527
0.0
0.0
0.500497117638588
0.30733706057071686
7.450580596923828e-08
1.9371509552001953e-07
0.2227979302406311
0.18046565726399422
0.3142102062702179
0.6605779081583023
0.275437667965889
0.08062328398227692
1.4901161193847656e-08
1.4901161193847656e-08
4.470348358154297e-08
1.4901161193847656e-08
2.9802322387695312e-08
1.1920928955078125e-07
4.470348358154297e-08
1.043081283569336e-07
1.4901161193847656e-08
1.4901161193847656e-08
1.4901161193847656e-08
7.450580596923828e-08
1.1920928955078125e-07
2.9802322387695312e-08
2.8312206268310547e-07
4.470348358154297e-08
1.4901161193847656e-08
1.043081283569336e-07
0.25255487859249115
0.5526396483182907
0.044066667556762695
0.20670345425605774
0.2705138176679611
0.21651281416416168
1.9371509552001953e-07
4.470348358154297e-08
0.13924337923526764
0.5124543756246567
0.0
0.0
0.002857297658920288
0.09004531800746918
7.450580596923828e-08
1.1920928955078125e-07
0.17165321111679077
0.1471850872039795
0.0
0.0
0.5055310130119324
0.10921317338943481
1.1920928955078125e-07
2.9802322387695312e-08
0.1473129391670227
0.07941436767578125
0.0
0.0
0.3255341947078705
0.07814422249794006
2.9802322387695312e-08
4.470348358154297e-08
0.14349894225597382
0.21239839494228363
0.3786170482635498
0.38982710242271423
0.058445826172828674
0.15936382114887238
4.470348358154297e-08
4.470348358154297e-08
0.13954007998108864
0.42534928768873215
0.4581213593482971
0.21002140641212463
0.10554488003253937
0.20018722116947174
1.4901161193847656e-08
1.4901161193847656e-08
2.5331974029541016e-07
2.2351741790771484e-07
2.384185791015625e-07
2.9802322387695312e-08
4.470348358154297e-08
1.4901161193847656e-08
1.4901161193847656e-08
5.960464477539063e-08
5.960464477539063e-08
1.1920928955078125e-07
2.2351741790771484e-07
4.470348358154297e-08
1.1920928955078125e-07
5.960464477539063e-08
0.0
5.960464477539063e-08
0.15614742040634155
0.13978981971740723
0.43384821712970734
0.23855261504650116
0.0565035343170166
0.38137543201446533
1.7881393432617188e-07
1.1920928955078125e-07
0.22589564323425293
0.5434281378984451
0.0
0.0
0.06376290321350098
0.053471148014068604
1.1920928955078125e-07
7.450580596923828e-08
0.37734200060367584
0.06104956567287445
0.0
0.0
0.09123249351978302
0.02528040111064911
4.470348358154297e-08
2.8312206268310547e-07
0.0522540807723999
0.1203862652182579
0.0
0.0
0.07403574883937836
0.16157157719135284
4.470348358154297e-08
1.1920928955078125e-07
0.2924383282661438
0.28434891998767853
0.012215748429298401
0.2446809858083725
0.07872480154037476
0.02784907817840576
0.0
2.980232238769531e-07
0.07350951433181763
0.09195029735565186
0.07524125277996063
0.08380754292011261
0.1722491979598999
0.14965969324111938
5.960464477539063e-08
5.960464477539063e-08
1.1920928955078125e-07
1.1920928955078125e-07
7.450580596923828e-08
4.470348358154297e-08
0.0
1.7881393432617188e-07
5.960464477539063e-08
0.0
0.0
1.7881393432617188e-07
1.9371509552001953e-07
4.470348358154297e-08
2.980232238769531e-07
0.0
0.0
1.1920928955078125e-07
0.11968261003494263
0.04513448476791382
0.30685558915138245
0.16823120415210724
0.3325730264186859
0.00869816541671753
1.1920928955078125e-07
1.7881393432617188e-07
0.049208641052246094
0.13874704763293266
0.0
0.0
0.14816349744796753
0.16454070806503296
5.960464477539063e-08
1.9371509552001953e-07
0.12521399557590485
0.3193053752183914
0.0
0.0
0.17120833694934845
0.1563277393579483
1.043081283569336e-07
4.470348358154297e-08
0.01058804988861084
0.18787194788455963
0.25544238090515137
0.03125515580177307
0.15102820098400116
0.0014402717351913452
1.4901161193847656e-08
5.960464477539063e-08
0.0016296803951263428
0.2751953601837158
0.0588555783033371
0.3076241463422775
0.09691178798675537
0.1516621708869934
5.960464477539063e-08
0.0
0.06258988380432129
0.12811064720153809
0.004526481032371521
0.18252049386501312
0.09318763017654419
0.18425095081329346
1.1920928955078125e-07
0.0
0.0
5.960464477539063e-08
1.4901161193847656e-08
1.4901161193847656e-08
5.960464477539063e-08
1.1920928955078125e-07
1.1920928955078125e-07
0.0
0.0
0.0
1.4901161193847656e-08
1.4901161193847656e-08
0.0
0.0
0.0
0.0
0.0
2.980232238769531e-07
4.470348358154297e-08
1.9371509552001953e-07
1.7881393432617188e-07
0.0
0.0
0.0
5.960464477539063e-08
1.1920928955078125e-07
4.470348358154297e-08
2.2351741790771484e-07
1.1920928955078125e-07
5.960464477539063e-08
5.960464477539063e-08
1.4901161193847656e-08
4.470348358154297e-08
2.8312206268310547e-07
2.9802322387695312e-08
1.1920928955078125e-07
7.450580596923828e-08
1.4901161193847656e-08
1.4901161193847656e-08
1.4901161193847656e-08
2.5331974029541016e-07
7.450580596923828e-08
1.1920928955078125e-07
2.9802322387695312e-08
4.470348358154297e-08
1.4901161193847656e-08
1.4901161193847656e-08
5.960464477539063e-08
1.1920928955078125e-07
1.1920928955078125e-07
7.450580596923828e-08
4.470348358154297e-08
0.0
1.7881393432617188e-07
5.960464477539063e-08
0.0
1.1920928955078125e-07
5.960464477539063e-08
1.043081283569336e-07
1.4901161193847656e-08
5.960464477539063e-08
1.1920928955078125e-07
1.1920928955078125e-07
0.0
0.0
5.960464477539063e-08
1.4901161193847656e-08
1.4901161193847656e-08
5.960464477539063e-08
1.1920928955078125e-07
1.1920928955078125e-07
SCALARS is_valid float 1
LOOKUP_TABLE default
1.0
1.0
1.0
1.0
1.0
1.0
1.0
1.0
1.0
1.0
1.0
1.0
1.0
1.0
1.0
1.0
1.0
1.0
1.0
1.0
1.0
1.0
1.0
1.0
1.0
1.0
1.0
1.0
1.0
1.0
1.0
1.0
1.0
1.0
1.0
1.0
1.0
1.0
1.0
1.0
1.0
1.0
1.0
1.0
1.0
1.0
1.0
1.0
1.0
1.0
1.0
1.0
1.0
1.0
1.0
1.0
1.0
1.0
1.0
1.0
1.0
1.0
1.0
1.0
1.0
1.0
1.0
1.0
1.0
1.0
1.0
1.0
1.0
1.0
1.0
1.0
1.0
1.0
1.0
1.0
1.0
1.0
1.0
1.0
1.0