# vtk DataFile Version 3.0
Zombie mixed Neumann point cloud
ASCII
DATASET POLYDATA
POINTS 100 float
-0.07506531476974487 -0.1366056501865387 0.013173379935324192
-0.18293996155261993 -0.20639638602733612 0.06558236479759216
0.09583643078804016 0.09216699004173279 0.19822871685028076
0.1591605842113495 0.09826190024614334 0.11652194708585739
0.10269244760274887 0.12208790332078934 -0.05031920224428177
0.14439241588115692 -2.7702202714863233e-05 0.07889033108949661
-0.12465598434209824 0.08890583366155624 -0.01456206850707531
0.08200465887784958 0.04023904725909233 0.028529653325676918
-0.0778198093175888 0.20467576384544373 0.01808490790426731
0.11640900373458862 -0.05392855033278465 -0.05519641190767288
-0.024133354425430298 -0.06471198052167892 0.07648530602455139
-0.1584019809961319 -0.11380434036254883 0.19409632682800293
0.0007200341206043959 -0.14171835780143738 -0.0884585753083229
-0.14046023786067963 0.14856645464897156 0.1384280025959015
-0.1206522136926651 0.17885059118270874 -0.16934892535209656
0.0637979730963707 -0.08200834691524506 -0.1477341204881668
0.15128476917743683 0.11837466061115265 0.016481446102261543
0.022057928144931793 0.11560583859682083 0.16248227655887604
0.13354404270648956 -0.11191084235906601 -0.20141087472438812
-0.04161341115832329 -0.012219387106597424 0.0910630077123642
0.19378411769866943 0.09193441271781921 -0.1564999222755432
-0.1123039722442627 -0.19054430723190308 -0.18700656294822693
0.1535661816596985 -0.02779868058860302 -0.1130300909280777
0.21674641966819763 0.17043240368366241 0.019389159977436066
-0.06580307334661484 -0.15572476387023926 0.1974000781774521
-0.10688965022563934 0.16368220746517181 -0.08726558834314346
-0.06359004229307175 0.15462380647659302 0.10946021974086761
0.11219200491905212 0.19136302173137665 -0.18980629742145538
-0.16002951562404633 0.17696674168109894 -0.1676093488931656
-0.10848454385995865 0.13522782921791077 0.16339506208896637
-0.10352464020252228 -0.0028979198541492224 -0.20320576429367065
-0.21320457756519318 -0.17474134266376495 0.04747423529624939
0.17252562940120697 0.030402569100260735 0.19249720871448517
0.027300415560603142 -0.045677173882722855 -0.1252017468214035
0.1899132877588272 -0.16647914052009583 0.08276353776454926
0.05740907043218613 0.05477408319711685 -0.16443488001823425
-0.1121973767876625 -0.017488673329353333 0.026444241404533386
-0.1379510462284088 -0.05513591691851616 0.07388915121555328
-0.1794629544019699 0.08458876609802246 0.11655347794294357
-0.05516524612903595 -0.0018036507535725832 -0.03593955188989639
-0.18875624239444733 0.0516912080347538 -0.10600894689559937
-0.18594114482402802 -0.20465236902236938 0.0457155741751194
0.12833258509635925 0.13424445688724518 0.2074701488018036
-0.13572043180465698 -0.20464541018009186 0.17213666439056396
-0.039453066885471344 0.20196683704853058 0.19502028822898865
0.013522762805223465 0.10355732589960098 -0.056043367832899094
0.060981400310993195 0.008101502433419228 0.1518663465976715
0.023005817085504532 -0.2146977186203003 -0.13387884199619293
-0.12181497365236282 0.11394257098436356 0.12134687602519989
0.07801305502653122 -0.08576802909374237 -0.11257121711969376
-0.02464437112212181 0.11115182191133499 -0.15425103902816772
0.030256478115916252 0.027019716799259186 -0.04045914486050606
0.047267552465200424 -0.21948859095573425 0.09831839054822922
0.02620573155581951 0.02842363528907299 0.015358532778918743
-0.10045620054006577 -0.11330053210258484 0.08179370313882828
0.08356169611215591 -0.11029141396284103 -0.12391968071460724
-0.2120017409324646 0.03736439719796181 -0.049930959939956665
-0.0791410282254219 0.1992880254983902 -0.01132095605134964
-0.14859721064567566 -0.21049337089061737 0.2105771005153656
0.0786357894539833 -0.1354735791683197 -0.13299551606178284
-0.2002491056919098 0.11602981388568878 0.10726416856050491
-0.19555234909057617 -0.04300818592309952 -0.17574310302734375
-0.21581393480300903 0.14012767374515533 0.21435002982616425
-0.0830676406621933 0.006999379023909569 0.11028484255075455
-0.05148066207766533 -0.2066558599472046 0.00040743921999819577
-0.1416575014591217 -0.031062211841344833 -0.0790930986404419
-0.0725710391998291 0.11917074024677277 -0.20260874927043915
-0.07852806895971298 -0.08844806998968124 0.04731917753815651
-0.13949644565582275 -0.21577025949954987 -0.15623219311237335
0.17243175208568573 0.1490897536277771 -0.061233311891555786
0.14297494292259216 -0.07498958706855774 -0.0028536401223391294
0.21269308030605316 0.1892176866531372 -0.1857268512248993
-0.014204994775354862 -0.13889382779598236 0.09952415525913239
0.12294748425483704 -0.014803599566221237 -0.08264300227165222
0.03761793300509453 -0.09456625580787659 0.21552851796150208
0.21524128317832947 0.15268635749816895 -0.20895546674728394
-0.062482595443725586 0.1659640669822693 0.073890820145607
0.03333934769034386 -0.20864138007164001 0.11490847915410995
-0.04088428243994713 -0.007817788049578667 -0.13769493997097015
-0.0920625850558281 -0.04016411677002907 -0.20889979600906372
0.19024616479873657 -0.16206350922584534 -0.19485802948474884
0.18765664100646973 0.13541245460510254 -0.12879052758216858
-0.1736600548028946 0.016245028004050255 -0.049460750073194504
-0.12202873826026917 -0.0860648974776268 0.07033847272396088
-0.20700621604919434 -0.13651251792907715 0.21957561373710632
-0.062407176941633224 0.08096374571323395 -0.11907224357128143
-0.04572553560137749 -0.012314412742853165 -0.07338415831327438
0.016685988754034042 -0.181162029504776 -0.08260689675807953
-0.1348813772201538 0.20310141146183014 0.05128169059753418
0.030086679384112358 -0.1977597177028656 -0.06251675635576248
-0.15538519620895386 -0.0005670454120263457 0.18371814489364624
-0.09472714364528656 0.029711216688156128 -0.07413049042224884
0.06094290688633919 -0.16822369396686554 -0.005193329881876707
0.2198725789785385 0.06338343769311905 -0.09816482663154602
-0.16544924676418304 0.01583719812333584 -0.01853548176586628
0.15058216452598572 0.21053436398506165 0.030692974105477333
-0.028379689902067184 0.057104527950286865 0.04800588637590408
0.12218693643808365 0.1511181890964508 -0.03176334872841835
-0.17359305918216705 0.13906772434711456 -0.1973094791173935
0.20990519225597382 0.09881704300642014 -0.1217145025730133
VERTICES 100 200
1 0
1 1
1 2
1 3
1 4
1 5
1 6
1 7
1 8
1 9
1 10
1 11
1 12
1 13
1 14
1 15
1 16
1 17
1 18
1 19
1 20
1 21
1 22
1 23
1 24
1 25
1 26
1 27
1 28
1 29
1 30
1 31
1 32
1 33
1 34
1 35
1 36
1 37
1 38
1 39
1 40
1 41
1 42
1 43
1 44
1 45
1 46
1 47
1 48
1 49
1 50
1 51
1 52
1 53
1 54
1 55
1 56
1 57
1 58
1 59
1 60
1 61
1 62
1 63
1 64
1 65
1 66
1 67
1 68
1 69
1 70
1 71
1 72
1 73
1 74
1 75
1 76
1 77
1 78
1 79
1 80
1 81
1 82
1 83
1 84
1 85
1 86
1 87
1 88
1 89
1 90
1 91
1 92
1 93
1 94
1 95
1 96
1 97
1 98
1 99
POINT_DATA 100
SCALARS solution float 1
LOOKUP_TABLE default
-0.19495828449726105
-0.3241087794303894
0.38957083225250244
0.3718961477279663
0.17176440358161926
0.22229182720184326
-0.08349792659282684
0.07730713486671448
0.13068030774593353
0.014307424426078796
-0.034145113080739975
-0.07791697978973389
-0.2336791753768921
0.14968232810497284
-0.10598771274089813
-0.172256737947464
0.2807864546775818
0.29050716757774353
-0.17871235311031342
-0.01138580683618784
0.12399977445602417
-0.48167428374290466
0.0025153132155537605
0.4079098105430603
-0.03282240778207779
-0.03890343755483627
0.169019415974617
0.11701085418462753
-0.14882923662662506
0.1882363110780716
-0.3101029396057129
-0.3415676951408386
0.4003124535083771
-0.12546494603157043
0.10057761520147324
-0.05860092490911484
-0.12218045443296432
-0.11611849814653397
0.026542454957962036
-0.13325288891792297
-0.24931396543979645
-0.345909059047699
0.46987226605415344
-0.1713850498199463
0.35745951533317566
0.02363533154129982
0.21005548536777496
-0.3311465382575989
0.07943080365657806
-0.14767524600028992
-0.06236927583813667
-0.017750835046172142
-0.07488961517810822
0.006551776546984911
-0.13351969420909882
-0.1523224264383316
-0.2265690714120865
0.09168803691864014
-0.14988359808921814
-0.19818823039531708
0.011029479093849659
-0.41095542907714844
0.13695943355560303
0.0342429056763649
-0.261214941740036
-0.26327139139175415
-0.1568790078163147
-0.11375298351049423
-0.5099864602088928
0.2485852837562561
0.052641190588474274
0.21026673913002014
-0.06510615348815918
0.025035008788108826
0.15269410610198975
0.15674841403961182
0.15797752141952515
-0.06204080209136009
-0.18658502399921417
-0.3450664281845093
-0.17147992551326752
0.20933210849761963
-0.2134028673171997
-0.1408308744430542
-0.12365995347499847
-0.11862540990114212
-0.1407092660665512
-0.25031372904777527
0.11389141529798508
-0.2396623194217682
0.03432762995362282
-0.16449391841888428
-0.0990423858165741
0.18444301187992096
-0.17524610459804535
0.38886845111846924
0.015386844053864479
0.23387493193149567
-0.22299693524837494
0.17720943689346313
SCALARS exact float 1
LOOKUP_TABLE default
-0.19849758502095938
-0.3237539827823639
0.3862321376800537
0.3739444315433502
0.17446114867925644
0.22325504476793867
-0.0503122191876173
0.15077335946261883
0.14494086243212223
0.007284041494131088
-0.01236002892255783
-0.0781099945306778
-0.2294568989891559
0.14653421938419342
-0.11115054786205292
-0.16594449430704117
0.286140875890851
0.30014604330062866
-0.17977767437696457
0.037230209447443485
0.12921860814094543
-0.4898548424243927
0.012737410143017769
0.4065679833292961
-0.024127759039402008
-0.030473031103610992
0.20049398392438889
0.11374872922897339
-0.15067212283611298
0.1901383474469185
-0.30962832435034215
-0.34047168493270874
0.3954254072159529
-0.14357850514352322
0.10619768500328064
-0.052251726388931274
-0.10324180871248245
-0.11919781193137169
0.021679289638996124
-0.09290844877250493
-0.2430739812552929
-0.344877939671278
0.470047190785408
-0.16822917759418488
0.3575340583920479
0.061036720871925354
0.22094924934208393
-0.3255707435309887
0.11347447335720062
-0.12032619118690491
-0.06774358823895454
0.01681705005466938
-0.07390264794230461
0.06998789962381124
-0.13196302950382233
-0.15064939856529236
-0.22456830367445946
0.10882604122161865
-0.14851348102092743
-0.18983330577611923
0.023044876754283905
-0.41430363804101944
0.13866376876831055
0.03421658091247082
-0.2577290828048717
-0.25181281194090843
-0.15600904822349548
-0.11965696141123772
-0.511498898267746
0.26028819382190704
0.0651317157316953
0.21618391573429108
-0.05357466731220484
0.025500882416963577
0.15858019515872002
0.15897217392921448
0.1773722916841507
-0.0603935532271862
-0.18639701046049595
-0.3411264978349209
-0.1666753739118576
0.1942785680294037
-0.20687577687203884
-0.1377551630139351
-0.12394312024116516
-0.10051567479968071
-0.13142410665750504
-0.2470829375088215
0.11950172483921051
-0.23018979467451572
0.027765903272666037
-0.13914641737937927
-0.11247411696240306
0.18509119004011154
-0.16814753040671349
0.3918095026165247
0.07673072442412376
0.2415417768061161
-0.23183481395244598
0.18700773268938065
SCALARS abs_error float 1
LOOKUP_TABLE default
0.00353930052369833
0.0003547966480255127
0.0033386945724487305
0.002048283815383911
0.0026967450976371765
0.000963217566095409
0.03318570740520954
0.07346622459590435
0.014260554686188698
0.007023382931947708
0.021785084158182144
0.0001930147409439087
0.004222276387736201
0.003148108720779419
0.005162835121154785
0.006312243640422821
0.005354421213269234
0.009638875722885132
0.0010653212666511536
0.048616016283631325
0.005218833684921265
0.008180558681488037
0.010222096927464008
0.0013418272137641907
0.008694648742675781
0.00843040645122528
0.03147456794977188
0.0032621249556541443
0.001842886209487915
0.0019020363688468933
0.0004746152553707361
0.0010960102081298828
0.004887046292424202
0.01811355911195278
0.0056200698018074036
0.006349198520183563
0.018938645720481873
0.0030793137848377228
0.004863165318965912
0.04034444014541805
0.006239984184503555
0.0010311193764209747
0.00017492473125457764
0.0031558722257614136
7.45430588722229e-05
0.037401389330625534
0.010893763974308968
0.005575794726610184
0.03404366970062256
0.02734905481338501
0.005374312400817871
0.03456788510084152
0.0009869672358036041
0.06343612307682633
0.0015566647052764893
0.0016730278730392456
0.0020007677376270294
0.017138004302978516
0.0013701170682907104
0.008354924619197845
0.012015397660434246
0.003348208963871002
0.0017043352127075195
2.6324763894081116e-05
0.0034858589351642877
0.011458579450845718
0.0008699595928192139
0.0059039779007434845
0.0015124380588531494
0.01170291006565094
0.01249052514322102
0.005917176604270935
0.011531486175954342
0.0004658736288547516
0.00588608905673027
0.002223759889602661
0.01939477026462555
0.0016472488641738892
0.00018801353871822357
0.003939930349588394
0.004804551601409912
0.015053540468215942
0.006527090445160866
0.00307571142911911
0.000283166766166687
0.01810973510146141
0.009285159409046173
0.003230791538953781
0.005610309541225433
0.009472524747252464
0.006561726680956781
0.025347501039505005
0.013431731145828962
0.0006481781601905823
0.007098574191331863
0.002941051498055458
0.061343880370259285
0.007666844874620438
0.008837878704071045
0.009798295795917511
SCALARS mean_steps float 1
LOOKUP_TABLE default
167.28515625
20.0078125
44.9140625
189.26953125
451.12109375
149.46484375
846.765625
1002.265625
311.57421875
197.48046875
373.67578125
51.83984375
181.6953125
231.609375
83.890625
117.60546875
291.8046875
274.578125
36.5390625
446.0625
52.4765625
34.921875
100.2890625
14.40625
44.62890625
435.0234375
505.4296875
34.90234375
106.078125
158.57421875
83.1015625
31.39453125
35.625
270.4375
28.58984375
141.98046875
541.171875
229.68359375
170.1875
856.74609375
139.73828125
18.98046875
36.02734375
19.6640625
57.66796875
1189.3515625
300.54296875
17.0078125
323.74609375
164.4375
303.7890625
996.9921875
8.91796875
1651.3203125
158.02734375
110.27734375
49.203125
496.42578125
16.7890625
101.046875
67.58203125
19.53125
14.23046875
452.6015625
19.05078125
239.37109375
34.60546875
295.4765625
16.37109375
140.890625
179.55078125
33.46484375
157.87109375
265.49609375
25.359375
15.703125
640.38671875
43.23046875
283.23046875
42.16015625
19.74609375
45.1796875
293.16015625
157.43359375
8.4375
480.9296875
580.34765625
78.0
169.328125
59.59375
68.99609375
665.08984375
103.07421875
5.27734375
314.48828125
51.18359375
1865.4765625
323.19921875
75.6484375
26.4296875
SCALARS std_error float 1
LOOKUP_TABLE default
0.012251017120198408
0.003946417709646468
0.0062812616247668865
0.009968993695889938
0.012180030286267476
0.011336693036156581
0.009577488641617646
0.03214067153829934
0.004991754753528151
0.012826415126482549
0.013255683838325752
0.005338248358629464
0.011444552094421476
0.008115246416420386
0.0056989342927865096
0.010907487638755663
0.011530647381254625
0.00890422661205106
0.005669608168266989
0.024060384031095085
0.006216393900440931
0.006179620598623496
0.010279462888439105
0.0012220535408353007
0.005566693625853786
0.0076973697875484404
0.010652793976923461
0.004909603374495893
0.006011166193015548
0.008569929450150114
0.006119895651581507
0.003359637065899855
0.006748540706858565
0.012745071405460509
0.0069239298455900065
0.010327654754568276
0.012027989102742076
0.0111388036643855
0.008197452028972539
0.011144571958623624
0.007503326493296644
0.0042126382157121065
0.004012709319320476
0.00458977797833961
0.003958190985144033
0.010065343490799437
0.01100102342493173
0.0015892898789399196
0.010383587738402316
0.011218709464576072
0.0094566626046315
0.012079651947645164
0.0009841836353258557
0.009710464933407319
0.011908806702723061
0.011219877452534633
0.004077571242718308
0.006611248958640509
0.0022481343347839785
0.01009977356257254
0.0058432132008359155
0.005768415443254382
0.0007230844810992032
0.01165964886964791
0.004490707449398878
0.010994866152930933
0.00573698636450246
0.012849649618318876
0.002115044097958685
0.009524199819937145
0.011834056633198087
0.0026424949807578005
0.011960202031755296
0.012388811839258914
0.0035757485314644416
0.001718669957945855
0.009482578575605426
0.005540775226374083
0.012554492094313531
0.00407291245126191
0.0037296629686973037
0.005428849325926866
0.00962021045375313
0.011678582757394255
0.00037951544385817545
0.011171272392251507
0.013151189708623976
0.010482600681012396
0.005120212837305225
0.006174665535358566
0.007045907203053569
0.010670067621206623
0.010838688808206865
0.0009365180116047892
0.008998341643849293
0.00459747881814611
0.007858668474951517
0.010050663176929755
0.005354517213532727
0.005531080175383352
SCALARS samples_used float 1
LOOKUP_TABLE default
256.0
256.0
256.0
256.0
256.0
256.0
256.0
256.0
256.0
256.0
256.0
256.0
256.0
256.0
256.0
256.0
256.0
256.0
256.0
256.0
256.0
256.0
256.0
256.0
256.0
256.0
256.0
256.0
256.0
256.0
256.0
256.0
256.0
256.0
256.0
256.0
256.0
256.0
256.0
256.0
256.0
256.0
256.0
256.0
256.0
256.0
256.0
256.0
256.0
256.0
256.0
256.0
256.0
256.0
256.0
256.0
256.0
256.0
256.0
256.0
256.0
256.0
256.0
256.0
256.0
256.0
256.0
256.0
256.0
256.0
256.0
256.0
256.0
256.0
256.0
256.0
256.0
256.0
256.0
256.0
256.0
256.0
256.0
256.0
256.0
256.0
256.0
256.0
256.0
256.0
256.0
256.0
256.0
256.0
256.0
256.0
256.0
256.0
256.0
256.0
