# vtk DataFile Version 3.0
Zombie Bunny baseline point cloud
ASCII
DATASET POLYDATA
POINTS 498 float
-0.11997214704751968 -0.08062633126974106 0.13084080815315247
0.07755205780267715 -0.04791179671883583 -0.07356186956167221
0.04325585067272186 -0.13783696293830872 0.07601265609264374
0.19439326226711273 -0.11077188700437546 0.19750770926475525
0.07358448207378387 -0.17780490219593048 -0.025590546429157257
0.17005115747451782 0.08687953650951385 -0.07635194063186646
0.10292839258909225 -0.1231406182050705 -0.18409839272499084
-0.14964593946933746 -0.07035592198371887 -0.015315012075006962
-0.10277474671602249 0.13894161581993103 -0.13495047390460968
-0.1630336046218872 -0.17966750264167786 0.043369926512241364
0.15608644485473633 0.044713348150253296 0.1900748759508133
0.09890379756689072 0.15864257514476776 0.1889086365699768
0.020321844145655632 0.1925760954618454 -0.0022053064312785864
-0.09953980147838593 -0.02121736854314804 0.07261712849140167
-0.07440798729658127 0.1775197684764862 -0.10688736289739609
-0.07047553360462189 -0.10610450804233551 -0.06360355019569397
-0.2177901715040207 0.05658600106835365 -0.09575160592794418
-0.1900414228439331 0.05140475183725357 -0.14241641759872437
-0.08606910705566406 -0.026009803637862206 -0.15391096472740173
-0.12411130219697952 -0.01129342895001173 -0.010397703386843204
-0.10769776254892349 -0.08907128125429153 -0.09721046686172485
-0.10534514486789703 -0.007584899198263884 -0.12672922015190125
-0.001922537456266582 -0.11164501309394836 0.14893236756324768
-0.14074254035949707 0.1593487709760666 -0.1415482461452484
0.11023378372192383 0.04889297857880592 -0.12797178328037262
0.11434386670589447 -0.11032535135746002 -0.18234844505786896
0.05194495618343353 0.01626606658101082 0.0591917522251606
-0.1432753950357437 -0.1108076274394989 0.08132211118936539
-0.18441647291183472 0.16503238677978516 -0.03137447312474251
0.052093446254730225 -0.08223357796669006 -0.14125634729862213
-0.21572665870189667 -0.12758110463619232 0.16280029714107513
0.2080451101064682 -0.02561136893928051 -0.05335022136569023
-0.09858328104019165 0.20508581399917603 -0.19439084827899933
-0.04015708342194557 -0.145803302526474 -0.11433661729097366
0.12320345640182495 -0.1303422600030899 0.022902419790625572
-0.058522578328847885 0.0032039573416113853 -0.07328736782073975
-0.09560246020555496 -0.09599466621875763 -0.18243223428726196
-0.008001991547644138 0.1686708778142929 0.1967802196741104
-0.207951158285141 0.1838109940290451 -0.16652920842170715
0.10905301570892334 0.17446912825107574 -0.1461108922958374
-0.07415618002414703 -0.05361108481884003 -0.0673864558339119
0.007152508478611708 -0.216042622923851 -0.034021589905023575
0.1661694049835205 -0.18154172599315643 -0.007002680096775293
-0.008259800262749195 0.12433145940303802 0.20440621674060822
0.09112243354320526 -0.0995558425784111 0.07484985142946243
-0.06708468496799469 0.11797624826431274 0.07733942568302155
0.21011409163475037 0.16135230660438538 -0.19971247017383575
-0.09225756675004959 0.15945208072662354 0.0443730466067791
-0.0685264989733696 -0.1955348700284958 0.11566397547721863
-0.21933172643184662 -0.1791488379240036 0.21714183688163757
0.12144575268030167 0.16203917562961578 -0.010050369426608086
-0.14570659399032593 0.014950021170079708 -0.03263397514820099
-0.1482669711112976 -0.14701387286186218 -0.10641392320394516
0.19496029615402222 0.21419505774974823 0.08961322158575058
0.09818926453590393 0.1022990345954895 0.007654028013348579
-0.1419324278831482 0.1661643236875534 0.1673717498779297
0.09219520539045334 0.1907086819410324 0.21119919419288635
0.0015293441247195005 0.11333058029413223 0.051312148571014404
-0.16944880783557892 -0.0809650719165802 -0.19019708037376404
0.17022332549095154 -0.21028903126716614 0.016406148672103882
-0.14185068011283875 -0.15532223880290985 -0.14702843129634857
0.16585974395275116 -0.0024331447202712297 -0.07000378519296646
0.21965232491493225 0.020228954032063484 -0.08653430640697479
-0.05691325291991234 0.08618142455816269 -0.167091503739357
0.11361732333898544 0.16885775327682495 -0.010942296124994755
-0.02758592925965786 -0.15702949464321136 -0.03399340808391571
0.11634114384651184 -0.03784735128283501 0.052769627422094345
-0.20073702931404114 -0.12332083284854889 -0.130315363407135
0.21171633899211884 -0.2003980576992035 -0.1252598613500595
-0.20618434250354767 0.06139551103115082 0.06739498674869537
-0.06797053664922714 -0.20400400459766388 -0.02859540469944477
-0.14461539685726166 -0.0322413370013237 -0.05596349015831947
-0.12272201478481293 0.15032202005386353 0.08475062251091003
-0.01291611511260271 -0.04413846135139465 -0.17202244699001312
0.04533696174621582 0.0018268575659021735 0.17836767435073853
0.2063203603029251 0.13622193038463593 0.16134636104106903
-0.0018525203922763467 -0.055535830557346344 -0.009244314394891262
0.013746732845902443 0.13978658616542816 -0.1535571962594986
0.04424591362476349 0.17863550782203674 -0.1221158355474472
-0.09334016591310501 0.1505744308233261 0.0668218731880188
0.20480456948280334 0.06251684576272964 0.19770647585391998
0.14381328225135803 0.0768539160490036 -0.13640539348125458
-0.12604539096355438 0.15973307192325592 -0.07307346910238266
0.0820317417383194 -0.02843468450009823 -0.01788654550909996
-0.21534697711467743 0.14182187616825104 -0.08296223729848862
-0.07166127860546112 -0.18849515914916992 0.054835911840200424
0.1225893497467041 0.004858155269175768 -0.009807651862502098
0.11972713470458984 -0.17744188010692596 0.018004069104790688
0.10950881242752075 -0.05882460996508598 0.16549740731716156
-0.019001321867108345 -0.1690055876970291 0.20983174443244934
-0.019403677433729172 0.11122721433639526 -0.18556858599185944
0.13588979840278625 -0.15311986207962036 -0.165019229054451
-0.09836802631616592 -0.03312874957919121 -0.0064743016846477985
-0.031551286578178406 -0.20480260252952576 0.04269375279545784
0.10646208375692368 0.2106517106294632 0.02383037656545639
0.19002212584018707 0.19886508584022522 -0.12654604017734528
-0.19079282879829407 -0.14534877240657806 0.10755070298910141
-0.10517359524965286 -0.17061515152454376 0.19509051740169525
0.08077932894229889 0.20159907639026642 -0.07501570135354996
-0.13540636003017426 -0.15981294214725494 0.19508618116378784
-0.1477673202753067 0.13303494453430176 -0.12685944139957428
0.15968450903892517 -0.19506318867206573 -0.0521763414144516
-0.04315036162734032 0.2095465362071991 0.17500002682209015
-0.05084119364619255 -0.03313955292105675 0.09466398507356644
0.06165032461285591 0.17342710494995117 0.0823652595281601
0.006737223360687494 0.17630107700824738 -0.07436338812112808
-0.05832354724407196 -0.06536971032619476 -0.004614763893187046
-0.20471905171871185 -0.02072102762758732 -0.08068826794624329
-0.1129985824227333 -0.11113214492797852 0.1309194266796112
-0.05033992975950241 0.21152730286121368 -0.0383891835808754
0.08699124306440353 -0.08563601970672607 0.14365819096565247
-0.12624922394752502 -0.09891769289970398 -0.09129192680120468
-0.1630832999944687 0.11026202887296677 -0.030133070424199104
-0.16458411514759064 0.015934016555547714 -0.005138222593814135
0.002310275100171566 0.09349983185529709 -0.19072607159614563
-0.003545509884133935 -0.19729402661323547 0.20948044955730438
0.07035566866397858 -0.14555847644805908 0.18460790812969208
-0.14300484955310822 -0.06398090720176697 -0.19910529255867004
-0.056643638759851456 0.10181993991136551 -0.16637712717056274
0.12187320739030838 -0.03208383545279503 0.13302427530288696
-0.14347194135189056 0.17703256011009216 0.09999541938304901
-0.19878266751766205 -0.009130683727562428 -0.19116632640361786
0.09788229316473007 -0.06016488000750542 0.12062767148017883
0.1683150976896286 -0.14239944517612457 0.1365651786327362
-0.05026444047689438 -0.0517968125641346 0.06790255755186081
0.20861579477787018 0.0802946612238884 -0.12273150682449341
-0.2198076844215393 -0.17098674178123474 -0.09033691138029099
-0.1896706223487854 -0.1908247470855713 0.19639058411121368
-0.1532648205757141 -0.07307345420122147 0.20496393740177155
0.01482681930065155 0.08478088676929474 -0.09345746040344238
0.07306645810604095 -0.14825527369976044 -0.06772071123123169
0.17890912294387817 0.10100293159484863 -0.016621766611933708
-0.018528545275330544 0.10660741478204727 -0.04494508355855942
-0.029699698090553284 0.029792601242661476 0.0262895580381155
-0.01740734651684761 0.04597815126180649 -0.15405915677547455
0.10511892288923264 -0.14847610890865326 0.13578137755393982
0.03199012577533722 0.19176077842712402 -0.03636329248547554
0.06968290358781815 -0.18767757713794708 -0.0864906758069992
-0.14862698316574097 0.07413477450609207 -0.16671831905841827
-0.0006648542475886643 -0.1088242456316948 -0.14615222811698914
0.13787271082401276 -0.1127181276679039 -0.18485617637634277
-0.04733440652489662 -0.12728425860404968 0.0941682681441307
0.05222734808921814 0.19753395020961761 0.15459060668945312
-0.08531419187784195 0.15883193910121918 -0.10868467390537262
0.15551841259002686 -0.1561994105577469 0.1885955035686493
0.028356710448861122 -0.018717462196946144 -0.04270368441939354
-0.053912241011857986 -0.1508180797100067 0.05773019418120384
-0.06342366337776184 0.16739147901535034 -0.16558663547039032
-0.014088203199207783 0.03755617141723633 0.10074804723262787
0.06829652935266495 -0.032325830310583115 0.10187723487615585
0.09239763021469116 -0.05210600420832634 -0.031673580408096313
-0.06401769816875458 0.12211427837610245 -0.1570887267589569
0.1388281285762787 0.03877498582005501 -0.0566956028342247
0.19466117024421692 0.20143716037273407 0.20618627965450287
-0.1756032258272171 -0.004152943845838308 0.1851705014705658
-0.21609878540039062 -0.08801689743995667 -0.017817426472902298
-0.09766033291816711 0.03146776184439659 0.015931829810142517
0.15140670537948608 -0.114608034491539 0.11267460882663727
-0.0028556252364069223 0.2047193944454193 0.15764722228050232
-0.2109527438879013 -0.04419312998652458 -0.10777813196182251
[...]
POINT_DATA 498
SCALARS solution float 1
LOOKUP_TABLE default
-0.07127313315868378
-0.029384054243564606
-0.01027758326381445
0.28042101860046387
-0.13645409047603607
0.17728029191493988
-0.21115201711654663
-0.2352677583694458
-0.10473236441612244
-0.2913875877857208
0.3834121823310852
0.45161715149879456
0.20677372813224792
-0.06027445197105408
-0.003901234595105052
-0.23939161002635956
-0.2553957402706146
-0.28959277272224426
-0.262277215719223
-0.14329490065574646
-0.288377970457077
-0.24205170571804047
0.05921356379985809
-0.13336113095283508
0.04257769137620926
-0.18463999032974243
0.13842062652111053
-0.1687694489955902
-0.058259330689907074
-0.18917997181415558
-0.17893698811531067
0.12203703820705414
-0.08700856566429138
-0.30757614970207214
0.02029968984425068
-0.1277100145816803
-0.3787558972835541
0.35318997502326965
-0.19098837673664093
0.13976964354515076
-0.18515966832637787
-0.24576199054718018
-0.02020731382071972
0.3200676739215851
0.07602281868457794
0.13907982409000397
0.17005176842212677
0.11390433460474014
-0.13998985290527344
-0.1817362755537033
0.27141237258911133
-0.15594442188739777
-0.3926790952682495
0.4975375831127167
0.2022765874862671
0.17904464900493622
0.4908609092235565
0.163670614361763
-0.45293018221855164
-0.015565437264740467
-0.43540164828300476
0.10236218571662903
0.15177950263023376
-0.13847076892852783
0.27449795603752136
-0.2156958431005478
0.14543406665325165
-0.45633742213249207
-0.11483851820230484
-0.07909805327653885
-0.3021729290485382
-0.23465703427791595
0.11295203864574432
-0.23654288053512573
0.22313997149467468
0.5070863962173462
-0.05236919969320297
0.0031215951312333345
0.10532370209693909
0.12691859900951385
0.46046075224876404
0.095526322722435
-0.03492102771997452
0.040836021304130554
-0.15871018171310425
-0.19315148890018463
0.1210036426782608
-0.041742026805877686
0.21518000960350037
0.019820531830191612
-0.07986381649971008
-0.17861558496952057
-0.15410254895687103
-0.19009636342525482
0.33912211656570435
0.26315686106681824
-0.22077001631259918
-0.07166639715433121
0.21103310585021973
-0.09892191737890244
-0.14657539129257202
-0.08682029694318771
0.3415711224079132
0.03266564756631851
0.30420732498168945
0.12096945196390152
-0.12381436675786972
-0.30015769600868225
-0.1026863157749176
0.12351425737142563
0.14375919103622437
-0.31684818863868713
-0.07645576447248459
-0.14862070977687836
-0.09377295523881912
0.010269533842802048
0.1084546148777008
-0.40009939670562744
-0.133429154753685
0.23576614260673523
0.13224345445632935
-0.3978283703327179
0.15660057961940765
0.15534944832324982
-0.04519372805953026
0.16905052959918976
-0.4813012480735779
-0.1843511462211609
-0.024785557761788368
-0.000207328557735309
-0.1531965285539627
0.25463151931762695
0.05159406736493111
0.030724935233592987
-0.12600181996822357
0.09763654321432114
0.18060334026813507
-0.20468668639659882
-0.23557786643505096
-0.2601170241832733
-0.14746159315109253
-0.09264110028743744
0.4093003273010254
-0.03856082633137703
0.19033466279506683
-0.049124978482723236
-0.15945957601070404
-0.06608796119689941
0.12691135704517365
0.13480247557163239
0.009232667274773121
-0.10143793374300003
0.1229584738612175
0.604210376739502
0.003279980970546603
-0.3256157338619232
-0.04585249349474907
0.14478588104248047
0.3619530200958252
-0.3623204231262207
0.24656923115253448
-0.20388486981391907
0.21295925974845886
-0.1990654617547989
-0.1854853332042694
-0.0661897137761116
0.06741224229335785
-0.12941187620162964
0.2269241064786911
-0.14128325879573822
0.4041609764099121
-0.027178645133972168
-0.06928078085184097
-0.38342028856277466
0.1373889297246933
0.04807718098163605
-0.33015114068984985
0.19162331521511078
-0.0890548974275589
-0.11254995316267014
0.01728532463312149
-0.12289004772901535
0.08449991792440414
0.11709502339363098
-0.16559168696403503
0.09127062559127808
0.1567123532295227
-0.00756609532982111
0.025688396766781807
0.03940393775701523
-0.04460442066192627
-0.3306596279144287
0.015853894874453545
-0.09069681912660599
-0.061776090413331985
-0.3231554329395294
-0.10592696070671082
-0.1780998259782791
-0.15510348975658417
-0.032812729477882385
0.38292407989501953
-0.14663559198379517
-0.2564261853694916
0.2768775522708893
-0.21755865216255188
-0.08242519944906235
-0.07866966724395752
0.38274893164634705
0.1960284560918808
-0.15054455399513245
-0.28103551268577576
0.12741759419441223
-0.2259482741355896
-0.14577268064022064
0.07972338795661926
-0.06628567725419998
-0.06279725581407547
0.3828330636024475
0.0924125462770462
-0.02809912897646427
-0.08866152912378311
-0.37673062086105347
-0.002901330590248108
0.1177423745393753
-0.3910696804523468
0.07867483049631119
-0.2733447253704071
0.1797572821378708
0.19313842058181763
0.033372342586517334
-0.33576029539108276
0.3596509099006653
0.2953293025493622
-0.07278134673833847
0.05372501164674759
0.05888430029153824
0.01848663203418255
0.4127648174762726
0.13695721328258514
-0.4379648268222809
0.05844636633992195
-0.3153935372829437
-0.2416643649339676
-0.07602687180042267
-0.32582443952560425
0.1693737506866455
0.4094410240650177
0.01373507920652628
0.09615367650985718
-0.23697076737880707
-0.11447019129991531
-0.06984703242778778
-0.03520767763257027
0.19622012972831726
0.16381634771823883
0.026225151494145393
0.28185898065567017
0.1662362962961197
-0.0484892800450325
0.026937156915664673
-0.04257849231362343
0.11304029077291489
-0.1418098658323288
-0.195368692278862
0.18354012072086334
0.04507480189204216
0.17871059477329254
-0.4686717391014099
-0.12312101572751999
0.34690016508102417
0.29822248220443726
-0.17541931569576263
-0.1414649486541748
-0.05242236703634262
0.08880557119846344
-0.437547892332077
0.03893979266285896
-0.08760914951562881
-0.11112470179796219
-0.1417146772146225
0.21886487305164337
0.1729668527841568
0.3599660098552704
-0.18494923412799835
0.20025357604026794
0.12604060769081116
0.010117022320628166
-0.33778849244117737
0.15511897206306458
-0.3811158537864685
0.09338260442018509
0.2077251672744751
0.1335790902376175
-0.0831705629825592
0.3595002591609955
-0.11263725906610489
-0.01255397405475378
-0.004847691394388676
-0.06443814933300018
-0.11623718589544296
0.19803935289382935
-0.2254338562488556
0.041182514280080795
-0.24414964020252228
-0.21774496138095856
-0.11876337975263596
-0.023504048585891724
0.11044889688491821
0.03409738466143608
-0.2541423738002777
-0.1849922239780426
0.011230036616325378
-0.19853180646896362
-0.30179134011268616
-0.17993639409542084
-0.037015400826931
0.17418572306632996
-0.13809257745742798
0.24283364415168762
-0.1224358081817627
0.06029720604419708
0.30890873074531555
0.327402263879776
0.28267961740493774
0.2623242735862732
-0.07655484974384308
-0.0565345473587513
0.2634255588054657
0.17011861503124237
0.06490371376276016
0.11507444083690643
-0.2223060578107834
0.041000619530677795
-0.44296908378601074
-0.3381863832473755
-0.3606892228126526
0.07275772094726562
-0.23885364830493927
0.12446525692939758
-0.11872165650129318
-0.009918637573719025
-0.18253947794437408
-0.3583226799964905
-0.3538239300251007
-0.13646307587623596
0.3132147789001465
-0.08661723881959915
0.08044768869876862
0.10187099874019623
0.12862172722816467
-0.13474240899085999
0.1685083508491516
-0.061285000294446945
0.14267198741436005
0.015031235292553902
0.008937686681747437
-0.04792577400803566
-0.1716708540916443
-0.3242523670196533
0.18257147073745728
0.0600118525326252
0.02429088018834591
-0.08562419563531876
0.09180250018835068
-0.19733603298664093
-0.1904141753911972
0.15232783555984497
-0.014522929675877094
-0.2856169641017914
0.004033744800835848
0.4334176480770111
0.25700750946998596
-0.36822402477264404
-0.41859105229377747
-0.01681721769273281
-0.003261606441810727
-0.23218770325183868
0.026325905695557594
0.2029532939195633
0.05571310967206955
0.23661568760871887
0.18856225907802582
0.04085636883974075
0.3720526397228241
-0.4473097622394562
-0.10219720005989075
0.05541420727968216
-0.18022476136684418
-0.1666160523891449
0.17272301018238068
-0.008683118969202042
-0.04039581120014191
-0.15220876038074493
-0.16309098899364471
0.29657068848609924
-0.0964302271604538
-0.034449901431798935
0.13240142166614532
-0.020763494074344635
0.2578568756580353
-0.0898711159825325
0.3648507297039032
-0.2882159650325775
-0.4400339424610138
-0.12995658814907074
-0.25332313776016235
-0.2730085849761963
0.22341789305210114
0.06647775322198868
0.20492801070213318
-0.30174654722213745
-0.08790219575166702
0.17763249576091766
0.2744015157222748
-0.079851433634758
0.09222620725631714
-0.3772831857204437
0.0113222049549222
0.1543058156967163
0.02705465443432331
0.17005586624145508
0.04451748728752136
-0.0204895231872797
-0.2568740248680115
-0.18751104176044464
0.2706679403781891
-0.21055784821510315
0.17693324387073517
-0.243928924202919
0.2677392363548279
-0.09782577306032181
-0.28825393319129944
0.17159806191921234
-0.3649272322654724
0.18512701988220215
-0.22048355638980865
-0.03923403099179268
0.07677444070577621
-0.18535016477108002
-0.30138006806373596
0.23758886754512787
-0.040627721697092056
0.42473646998405457
-0.12157180160284042
0.3637113571166992
-0.16562950611114502
-0.45936980843544006
-0.09787695854902267
0.13382740318775177
-0.11488934606313705
-0.41639381647109985
-0.388375848531723
0.251152902841568
0.3156432509422302
0.06711254268884659
-0.22371576726436615
-0.0244748555123806
-0.2874746322631836
-0.2793768048286438
-0.12990865111351013
-0.09645114094018936
-0.06503195315599442
0.25947970151901245
-0.10917764157056808
-0.022761184722185135
0.0201704278588295
0.052516017109155655
0.09046316891908646
-0.11519695073366165
0.13818512856960297
-0.006685981992632151
-0.08569670468568802
-0.10020715743303299
0.29156458377838135
0.0347607247531414
0.037587717175483704
0.1619909405708313
-0.21290478110313416
-0.0022043753415346146
0.0435456857085228
0.07180514931678772
-0.5142548084259033
0.36635538935661316
-0.0904134064912796
-0.09340725094079971
-0.26784417033195496
0.12663182616233826
0.3344794809818268
0.15933042764663696
0.07865635305643082
-0.15889981389045715
0.20087945461273193
-0.2811034023761749
0.010571185499429703
0.1603994220495224
0.2953886091709137
-0.2395729273557663
0.25656095147132874
SCALARS exact float 1
LOOKUP_TABLE default
-0.06975767016410828
-0.04392160847783089
-0.018568456172943115
0.2811290845274925
-0.12981096655130386
0.18057875335216522
-0.20431061834096909
-0.2353168735280633
-0.09878360480070114
-0.2993311807513237
0.3908746689558029
0.4464550092816353
0.21069263317622244
-0.048140041530132294
-0.00377558171749115
-0.24018359184265137
-0.2569557763636112
-0.2810530886054039
-0.265989875420928
-0.14580243453383446
-0.2939795106649399
-0.23965926421806216
0.035364817013032734
-0.1229420155286789
0.031154979020357132
-0.1783299297094345
0.12740277498960495
-0.17276091128587723
-0.05075855925679207
-0.17139647901058197
-0.18050746619701385
0.12908351980149746
-0.08788831532001495
-0.30029700323939323
0.01576361618936062
-0.12860598880797625
-0.37402936071157455
0.3574491059407592
-0.19066937267780304
0.13741125166416168
-0.19515372067689896
-0.24291170435026288
-0.02237500110641122
0.32047787588089705
0.06641644239425659
0.1282309889793396
0.1717539280653
0.11156756058335304
-0.14839739352464676
-0.18133872747421265
0.27343455888330936
-0.1633905479684472
-0.40169476717710495
0.498768575489521
0.208142327144742
0.1916036456823349
0.4941030815243721
0.16617207298986614
-0.44061096012592316
-0.023659557104110718
-0.44420135021209717
0.09342281403951347
0.15334697254002094
-0.13782333210110664
0.27153278049081564
-0.21860883198678493
0.13126341998577118
-0.45437322556972504
-0.11394158005714417
-0.07739384472370148
-0.3005699459463358
-0.23282022401690483
0.11235062777996063
-0.2290770234540105
0.22553149366285652
0.5038886517286301
-0.06663266534451395
-2.3877248167991638e-05
0.10076558589935303
0.1240561380982399
0.465027891099453
0.08426180481910706
-0.03938578814268112
0.03571051172912121
-0.156487338244915
-0.20532052591443062
0.11763985315337777
-0.03971067629754543
0.21618160977959633
0.021824834868311882
-0.09374504908919334
-0.1822492927312851
-0.13797107758000493
-0.19366013631224632
0.34094417095184326
0.262341171503067
-0.22859089821577072
-0.08069822937250137
0.20736270397901535
-0.10013312101364136
-0.14159181714057922
-0.08755502104759216
0.34139620140194893
0.010683238506317139
0.3174426890909672
0.10867491224780679
-0.12830802146345377
-0.30612834729254246
-0.09321130067110062
0.12279818952083588
0.14501341432332993
-0.3164588436484337
-0.08295434154570103
-0.15378832118585706
-0.09491596464067698
0.008640913059934974
0.10940510034561157
-0.4060910493135452
-0.12120082601904869
0.22281364724040031
0.1335560381412506
-0.39907967764884233
0.1583450846374035
0.16248083114624023
-0.03415869548916817
0.16617894917726517
-0.48113133758306503
-0.184104785323143
-0.021374337375164032
0.006150245666503906
-0.14290952682495117
0.2632902879267931
0.04313378594815731
0.026382461190223694
-0.12548835203051567
0.0924241915345192
0.1873876117169857
-0.20448534935712814
-0.24121052771806717
-0.2556413279962726
-0.15970159322023392
-0.0804503969848156
0.4043519049882889
-0.03516692668199539
0.18791450560092926
-0.03306443616747856
-0.14700012654066086
-0.06161881983280182
0.12421601545065641
0.1378479339182377
0.008618045598268509
-0.09899214655160904
0.120907511562109
0.6022846102714539
0.0054143317975103855
-0.3219331093132496
-0.050260741263628006
0.14947327971458435
0.3595109914895147
-0.3629240058362484
0.24793783342465758
-0.21241532266139984
0.22505608201026917
-0.20167535543441772
-0.18583061546087265
-0.0673554316163063
0.07688531279563904
-0.12967312335968018
0.22624731808900833
-0.14166786521673203
0.4095072951167822
-0.020952943712472916
-0.07223725598305464
-0.3857494071125984
0.12930651754140854
0.06972095370292664
-0.31789861246943474
0.19241610169410706
-0.08453434705734253
-0.11500699445605278
0.02238171175122261
-0.10617488948628306
0.09696868807077408
0.1135936826467514
-0.16306176781654358
0.10525583475828171
0.1556178443133831
-0.013237005099654198
0.03313836827874184
0.04778314381837845
-0.04254070669412613
-0.3223733529448509
0.014549663290381432
-0.08495917543768883
-0.05788448266685009
-0.3154156133532524
-0.11574733257293701
-0.18056590668857098
-0.15189217031002045
-0.03713381290435791
0.3917316049337387
-0.16041695326566696
-0.24976735888049006
0.27516020461916924
-0.219603031873703
-0.08416936546564102
-0.06972770392894745
0.38037214428186417
0.19427776709198952
-0.15940473228693008
-0.27643660828471184
0.1241542249917984
-0.2341843731701374
-0.14159412682056427
0.0845791632309556
-0.06625867262482643
-0.06661874614655972
0.3784434460103512
0.0941972117871046
-0.031028814613819122
-0.10510723851621151
-0.37928114645183086
-0.0011172182857990265
0.11661477014422417
-0.3846767693758011
0.07245620340108871
-0.2706192098557949
0.17375355144031346
0.19296947866678238
0.02987070381641388
-0.3267810717225075
0.36229119542986155
0.29118378460407257
-0.07763076573610306
0.06059969961643219
0.05682657565921545
0.020029140636324883
0.4155588373541832
0.1311018243432045
-0.43831951916217804
0.045464977622032166
-0.31317242980003357
-0.25125332921743393
-0.07209997624158859
-0.3322574570775032
0.16364380717277527
0.4136030450463295
0.01946396753191948
0.09051791951060295
-0.2354915775358677
-0.10389627143740654
-0.05041089188307524
-0.04217364452779293
0.19638662785291672
0.159771166741848
0.012823786586523056
0.2856321893632412
0.17621473968029022
-0.051323797553777695
0.02534853294491768
-0.03287110477685928
0.12515228986740112
-0.14093776047229767
-0.1947532519698143
0.18456449382938445
0.041676461696624756
0.16809727624058723
-0.46641969680786133
-0.10937041789293289
0.3424499789252877
0.29750516824424267
-0.17082813009619713
-0.1358334869146347
-0.039966560900211334
0.08467431366443634
-0.4386509209871292
0.03976555913686752
-0.07672471180558205
-0.10770893469452858
-0.14442399516701698
0.21329323016107082
0.17220942676067352
0.367298386991024
-0.17585881054401398
0.19981949403882027
0.12564731389284134
0.009405843913555145
-0.3328138440847397
0.1482612006366253
-0.38733532279729843
0.08985238522291183
0.19833954423666
0.14765622559934855
-0.08685371279716492
0.36542678996920586
-0.10319963470101357
-0.005373107269406319
0.0013004111824557185
-0.08788136020302773
-0.10981824994087219
0.2015164066106081
-0.22601045295596123
0.04330662079155445
-0.2502620741724968
-0.21409888565540314
-0.13729172199964523
-0.020818342454731464
0.10444417968392372
0.04091522470116615
-0.2658069506287575
-0.18093044310808182
0.0062362030148506165
-0.19932279735803604
-0.2991192974150181
-0.18344053626060486
-0.04307631030678749
0.1706963906181045
-0.11842231918126345
0.24481962248682976
-0.12003256008028984
0.053469814360141754
0.3124718628823757
0.32608348317444324
0.28077426366508007
0.2753812149167061
-0.07941188290715218
-0.060663752257823944
0.2628008279716596
0.16391974687576294
0.0551145076751709
0.12135992012917995
-0.21371712069958448
0.0454881452023983
-0.44263756275177
-0.3468818739056587
-0.36076299101114273
0.07283970713615417
-0.23389288038015366
0.12571562267839909
-0.11350806802511215
-0.015163963660597801
-0.1856181100010872
-0.36146805388852954
-0.3495904952287674
-0.14884988218545914
0.30549514293670654
-0.08691154047846794
0.0730540081858635
0.10420136898756027
0.12125665694475174
-0.13605285435914993
0.16798748075962067
-0.06813148874789476
0.1375105946790427
0.013840656727552414
0.007570698857307434
-0.046701859682798386
-0.15404538623988628
-0.31360839679837227
0.18381081521511078
0.0600135438144207
0.03715864568948746
-0.0797521355561912
0.09867779538035393
-0.19525963347405195
-0.1997300200164318
0.1368582844734192
-0.036685697734355927
-0.2822919376194477
0.0073022134602069855
0.4327414557337761
0.2735360721126199
-0.3708618991076946
-0.42597342282533646
-0.018078088760375977
-0.0014579035341739655
-0.22451765346340835
0.0202725762501359
0.20368513464927673
0.0577632337808609
0.24053534865379333
0.18203662568703294
0.008867889642715454
0.3780944421887398
-0.4399288222193718
-0.0933408085256815
0.055895961821079254
-0.19194676540791988
-0.13921283185482025
0.1638074666261673
-0.016493812203407288
-0.04281384125351906
-0.16181926056742668
-0.16685444116592407
0.2916683368384838
-0.08748348010703921
-0.04301460273563862
0.13029180467128754
-0.01976049318909645
0.24374431371688843
-0.08837143331766129
0.3606414571404457
-0.2886198488995433
-0.4355044513940811
-0.13718966767191887
-0.2565726786851883
-0.2799866758286953
0.224823959171772
0.056133612990379333
0.21001668088138103
-0.2939084731042385
-0.09033334255218506
0.18551942706108093
0.2765673976391554
-0.06570439040660858
0.09927122667431831
-0.37835919111967087
0.003708226140588522
0.14749330841004848
0.03278013304225169
0.17085345089435577
0.046680841594934464
-0.024701148737221956
-0.26139384135603905
-0.18767089396715164
0.2657702751457691
-0.21021772921085358
0.17827507853507996
-0.2391848135739565
0.26097493758425117
-0.0993191811721772
-0.2866615578532219
0.16317220032215118
-0.361919105052948
0.18743448331952095
-0.2140648104250431
-0.027429496869444847
0.05555862933397293
-0.18180595338344574
-0.3029838176444173
0.23515453934669495
-0.0420776829123497
0.42247652262449265
-0.10460768081247807
0.35508451610803604
-0.16726520657539368
-0.46241267397999763
-0.09683022648096085
0.1460659708827734
-0.10629309341311455
-0.4134475067257881
-0.38886567670851946
0.25828738138079643
0.3225547217298299
0.0641601849347353
-0.21362674236297607
-0.02109522372484207
-0.2755560949444771
-0.2852697568014264
-0.14187365770339966
-0.11859381385147572
-0.06502894684672356
0.25590740144252777
-0.11128741502761841
-0.024848852306604385
0.01621249585878104
0.04215133935213089
0.09282373636960983
-0.12203723937273026
0.1297534815967083
-0.001073447521775961
-0.08475193381309509
-0.09667761065065861
0.29491490218788385
0.03521018847823143
0.04227210581302643
0.1246243268251419
-0.2213096171617508
0.001520334742963314
0.03955145925283432