# vtk DataFile Version 3.0
Zombie Bunny baseline structured grid
ASCII
DATASET STRUCTURED_POINTS
DIMENSIONS 16 16 16
ORIGIN -0.22 -0.22 -0.22
SPACING 0.029333333333333333 0.029333333333333333 0.029333333333333333
POINT_DATA 4096
SCALARS solution float 1
LOOKUP_TABLE default
-0.6599999666213989
-0.6306666731834412
-0.6013333201408386
-0.5720000267028809
-0.5426666736602783
-0.5133333206176758
-0.48399999737739563
-0.4546666741371155
-0.4253333508968353
-0.3960000276565552
-0.36666667461395264
-0.3373333215713501
-0.30799999833106995
-0.2786666750907898
-0.24933332204818726
-0.2199999988079071
-0.6306666135787964
-0.6013333201408386
-0.5720000267028809
-0.5426666736602783
-0.5133333802223206
-0.48399996757507324
-0.4546666145324707
-0.42533332109451294
-0.3959999680519104
-0.366666704416275
-0.3373333215713501
-0.30799996852874756
-0.2786666750907898
-0.24933330714702606
-0.2199999839067459
-0.19066664576530457
-0.6013333797454834
-0.5720000267028809
-0.5426666736602783
-0.5133333206176758
-0.484000027179718
-0.4546666741371155
-0.42533332109451294
-0.3960000276565552
-0.36666667461395264
-0.3373333811759949
-0.30800002813339233
-0.2786666750907898
-0.24933333694934845
-0.2200000137090683
-0.19066669046878815
-0.1613333523273468
-0.5720000267028809
-0.5426666736602783
-0.5133333206176758
-0.48399999737739563
-0.4546666741371155
-0.42533332109451294
-0.3959999978542328
-0.36666667461395264
-0.3373333513736725
-0.30799999833106995
-0.2786666750907898
-0.24933332204818726
-0.2199999988079071
-0.19066664576530457
-0.1613333523273468
-0.13199999928474426
-0.5426666736602783
-0.5133333206176758
-0.48399996757507324
-0.4546666741371155
-0.4253333508968353
-0.3959999680519104
-0.36666667461395264
-0.3373333513736725
-0.30800002813339233
-0.2786666750907898
-0.24933336675167084
-0.2199999988079071
-0.19066670536994934
-0.1613333523273468
-0.13199999928474426
-0.10266667604446411
-0.5133333206176758
-0.48399996757507324
-0.4546666145324707
-0.42533332109451294
-0.3959999680519104
-0.36666661500930786
-0.3373332917690277
-0.30799993872642517
-0.2786666750907898
-0.24933335185050964
-0.21999996900558472
-0.19066664576530457
-0.16133329272270203
-0.13199995458126068
-0.10266664624214172
-0.07333332300186157
-0.48399999737739563
-0.4546666741371155
-0.42533332109451294
-0.3959999978542328
-0.36666667461395264
-0.3373333215713501
-0.30799999833106995
-0.2786666750907898
-0.24933333694934845
-0.2199999988079071
-0.19066667556762695
-0.1613333374261856
-0.13199999928474426
-0.10266664624214172
-0.07333335280418396
-0.04399999976158142
-0.4546666741371155
-0.42533332109451294
-0.3959999978542328
-0.36666667461395264
-0.3373333513736725
-0.30799996852874756
-0.2786666750907898
-0.24933332204818726
-0.2200000137090683
-0.19066669046878815
-0.1613333821296692
-0.13199995458126068
-0.10266667604446411
-0.07333329319953918
-0.04400002956390381
-0.014666661620140076
-0.4253333508968353
-0.3959999978542328
-0.36666667461395264
-0.3373333513736725
-0.30800002813339233
-0.2786666750907898
-0.24933333694934845
-0.2200000137090683
-0.19066670536994934
-0.161333367228508
-0.13200004398822784
-0.1026667058467865
-0.07333338260650635
-0.04400002956390381
-0.014666706323623657
0.014666661620140076
-0.3960000276565552
-0.366666704416275
-0.3373333811759949
-0.30800002813339233
-0.2786666750907898
-0.24933330714702606
-0.2199999988079071
-0.19066669046878815
-0.161333367228508
-0.13200005888938904
-0.10266672074794769
-0.07333333790302277
-0.044000059366226196
-0.014666646718978882
0.014666616916656494
0.04399999976158142
-0.36666667461395264
-0.3373333215713501
-0.3080000579357147
-0.2786667048931122
-0.24933336675167084
-0.2199999839067459
-0.19066667556762695
-0.1613333821296692
-0.13200004398822784
-0.10266672074794769
-0.07333335280418396
-0.043999992311000824
-0.014666691422462463
0.014666721224784851
0.04399998486042023
0.07333332300186157
-0.3373333215713501
-0.30799996852874756
-0.2786666750907898
-0.24933332204818726
-0.2199999988079071
-0.19066664576530457
-0.1613333374261856
-0.13200002908706665
-0.1026667058467865
-0.07333333790302277
-0.04399999976158142
-0.014666646718978882
0.014666616916656494
0.04399996995925903
0.07333335280418396
0.10266667604446411
-0.30799999833106995
-0.2786666750907898
-0.24933335185050964
-0.2200000286102295
-0.19066670536994934
-0.16133330762386322
-0.13199999928474426
-0.10266667604446411
-0.07333338260650635
-0.04399999976158142
-0.014666631817817688
0.01466667652130127
0.04399999976158142
0.07333329319953918
0.10266660153865814
0.13199999928474426
-0.2786666750907898
-0.24933332204818726
-0.2199999988079071
-0.19066664576530457
-0.1613333523273468
-0.13199996948242188
-0.10266664624214172
-0.07333329319953918
-0.04400002956390381
-0.014666646718978882
0.014666721224784851
0.04400002956390381
0.07333329319953918
0.10266664624214172
0.13200002908706665
0.1613333374261856
-0.24933332204818726
-0.2199999988079071
-0.19066673517227173
-0.1613333523273468
-0.13199999928474426
-0.10266664624214172
-0.07333335280418396
-0.04400002956390381
-0.014666706323623657
0.014666616916656494
0.04399998486042023
0.07333335280418396
0.10266660153865814
0.13200002908706665
0.1613333523273468
0.19066666066646576
-0.2199999988079071
-0.19066666066646576
-0.1613333374261856
-0.13199999928474426
-0.10266667604446411
-0.07333332300186157
-0.04399999976158142
-0.014666661620140076
0.014666661620140076
0.04399999976158142
0.07333332300186157
0.10266667604446411
0.13199999928474426
0.1613333374261856
0.19066666066646576
0.2199999988079071
-0.6306666135787964
-0.6013333201408386
-0.5719999670982361
-0.5426666736602783
-0.5133333802223206
-0.48399996757507324
-0.4546666443347931
-0.42533332109451294
-0.3959999680519104
-0.366666704416275
-0.3373333215713501
-0.30799996852874756
-0.2786666750907898
-0.24933330714702606
-0.2199999839067459
-0.19066664576530457
-0.6013333201408386
-0.5722745656967163
-0.5504603385925293
-0.5151548385620117
-0.48802608251571655
-0.4595368504524231
-0.42222487926483154
-0.4006155729293823
-0.36861881613731384
-0.34265828132629395
-0.3114641010761261
-0.27638357877731323
-0.2459859699010849
-0.22535134851932526
-0.18981952965259552
-0.1613333523273468
-0.5720000267028809
-0.5461699962615967
-0.512872040271759
-0.47947967052459717
-0.4477953314781189
-0.4335498511791229
-0.40100905299186707
-0.35826733708381653
-0.35375991463661194
-0.3101291358470917
-0.27505919337272644
-0.24569694697856903
-0.2200099229812622
-0.1837867945432663
-0.16707482933998108
-0.13200002908706665
-0.5426666736602783
-0.525978147983551
-0.48411819338798523
-0.45775991678237915
-0.42342880368232727
-0.39543479681015015
-0.3828047811985016
-0.342609703540802
-0.3150726556777954
-0.2805306911468506
-0.24428699910640717
-0.2292608767747879
-0.180979385972023
-0.1581854224205017
-0.12559698522090912
-0.10266658663749695
-0.5133333206176758
-0.4880293309688568
-0.449881911277771
-0.42728739976882935
-0.3890301287174225
-0.3679201900959015
-0.33329764008522034
-0.3074527978897095
-0.2928878962993622
-0.24067312479019165
-0.21624471247196198
-0.18034352362155914
-0.15507154166698456
-0.1268148124217987
-0.10292347520589828
-0.07333335280418396
-0.48399999737739563
-0.4554661512374878
-0.4145694375038147
-0.3969799876213074
-0.36287933588027954
-0.3438322842121124
-0.32278624176979065
-0.2858423590660095
-0.24013547599315643
-0.21537846326828003
-0.19749946892261505
-0.16797906160354614
-0.12600943446159363
-0.09868096560239792
-0.06408533453941345
-0.04399999976158142
-0.4546666443347931
-0.42373618483543396
-0.39030927419662476
-0.37442851066589355
-0.3409097492694855
-0.30559858679771423
-0.28082290291786194
-0.2600708603858948
-0.21800146996974945
-0.17754927277565002
-0.16029223799705505
-0.14020569622516632
-0.09840898960828781
-0.0779474601149559
-0.0389077328145504
-0.014666616916656494
-0.42533332109451294
-0.3997686207294464
-0.3692258298397064
-0.34164711833000183
-0.30524060130119324
-0.27425897121429443
-0.25044751167297363
-0.21416914463043213
-0.19767065346240997
-0.16063818335533142
-0.12401052564382553
-0.0961170643568039
-0.07321179658174515
-0.04028655216097832
-0.012113796547055244
0.014666706323623657
-0.3959999978542328
-0.363036572933197
-0.3272079825401306
-0.3059045970439911
-0.29018792510032654
-0.2406982183456421
-0.22098477184772491
-0.18956176936626434
-0.17381428182125092
-0.1371815800666809
-0.1140260174870491
-0.07222551107406616
-0.05025792121887207
-0.009735878556966782
0.012370451353490353
0.04400002956390381
-0.366666704416275
-0.3360319137573242
-0.31703031063079834
-0.27298498153686523
-0.2528703510761261
-0.21819770336151123
-0.18920961022377014
-0.1404963582754135
-0.13768576085567474
-0.091654472053051
-0.07344453781843185
-0.0476161353290081
-0.021015718579292297
0.0010463353246450424
0.04608336091041565
0.07333335280418396
-0.3373333215713501
-0.3121267259120941
-0.28388336300849915
-0.2564683258533478
-0.21465148031711578
-0.19455701112747192
-0.16517892479896545
-0.1332373172044754
-0.10320557653903961
-0.0660974383354187
-0.04353482276201248
-0.020841943100094795
0.012952378951013088
0.039788682013750076
0.07831478118896484
0.10266664624214172
-0.30799996852874756
-0.2827570140361786
-0.2619549036026001
-0.21203424036502838
-0.19787417352199554
-0.1684962809085846
-0.13010521233081818
-0.10574852675199509
-0.08210811764001846
-0.04198828712105751
-0.0024140523746609688
0.013427257537841797
0.03497309982776642
0.07463215291500092
0.09115047752857208
0.13199999928474426
-0.2786666750907898
-0.24625687301158905
-0.2161588966846466
-0.19563865661621094
-0.14950160682201385
-0.13890163600444794
-0.10829450935125351
-0.07456626743078232
-0.0449228435754776
-0.010143890045583248
0.008611558005213737
0.045816902071237564
0.08531724661588669
0.09578657895326614
0.1287955790758133
0.1613333523273468
-0.24933332204818726
-0.2210407555103302
-0.1929449588060379
-0.16648419201374054
-0.13538330793380737
-0.0916810855269432
-0.07760640233755112
-0.04688439890742302
-0.007404870819300413
0.013577268458902836
0.05076771229505539
0.07736596465110779
0.10493776202201843
0.12810532748699188
0.16614222526550293
0.19066667556762695
-0.2199999988079071
-0.19158169627189636
-0.16769427061080933
-0.13655562698841095
-0.10107102990150452
-0.07568871974945068
-0.04198722541332245
-0.019466372206807137
0.014598184265196323
0.04821794852614403
0.06795406341552734
0.0968029573559761
0.13411845266819
0.1588783711194992
0.19137093424797058
0.2199999988079071
-0.19066666066646576
-0.1613333523273468
-0.13200002908706665
-0.10266660153865814
-0.07333335280418396
-0.04399998486042023
-0.014666616916656494
0.014666706323623657
0.04400002956390381
0.07333335280418396
0.10266664624214172
0.13199999928474426
0.1613333523273468
0.19066673517227173
0.2199999988079071
0.24933332204818726
-0.6013333797454834
-0.5720000267028809
-0.5426666736602783
-0.5133333802223206
-0.484000027179718
-0.4546666741371155
-0.42533332109451294
-0.3960000276565552
-0.366666704416275
-0.3373333513736725
-0.3080000579357147
-0.2786666750907898
-0.24933336675167084
-0.2200000137090683
-0.19066673517227173
-0.1613333523273468
-0.5720000267028809
-0.5343535542488098
-0.5119330286979675
-0.4804888963699341
-0.4564380645751953
-0.41925451159477234
-0.3882180154323578
-0.36640265583992004
-0.3384058475494385
-0.31258437037467957
-0.2880740165710449
-0.25880926847457886
-0.21609582006931305
-0.1933617740869522
-0.1552148312330246
-0.13200002908706665
-0.5426666736602783
-0.5155521035194397
-0.4882417321205139
-0.4499416947364807
-0.43579092621803284
-0.38985925912857056
-0.3762449324131012
-0.3422327935695648
-0.3129405677318573
-0.2761327624320984
-0.2614004909992218
-0.21872274577617645
-0.1891062706708908
-0.16678349673748016
-0.12949854135513306
-0.10266664624214172
-0.5133333206176758
-0.4789882302284241
-0.44513630867004395
-0.4250601828098297
-0.3900117576122284
-0.3573913276195526
-0.3522503077983856
-0.2904220223426819
-0.2805905342102051
-0.24653179943561554
-0.2106270045042038
-0.18664027750492096
-0.16681578755378723
-0.13452012836933136
-0.08904848247766495
-0.07333329319953918
-0.48399999737739563
-0.450214147567749
-0.4310564696788788
-0.4036186933517456
-0.3575684726238251
-0.3254907429218292
-0.3124127686023712
-0.2638064920902252
-0.2515132427215576
-0.21798911690711975
-0.18980981409549713
-0.18251869082450867
-0.14701969921588898
-0.09366285800933838
-0.07075601071119308
-0.04399996995925903
-0.4546666741371155
-0.4274291694164276
-0.38278642296791077
-0.37068289518356323
-0.3192887008190155
-0.31813204288482666
-0.2850073277950287
-0.25912001729011536
-0.21489636600017548
-0.17988525331020355
-0.17202338576316833
-0.11975202709436417
-0.09590756893157959
-0.06221889331936836
-0.0455026850104332
-0.014666721224784851
-0.42533332109451294
-0.3889461159706116
-0.3636631369590759
-0.3452073335647583
-0.3001704812049866
-0.27653205394744873
-0.26670825481414795
-0.21652163565158844
-0.18632550537586212
-0.16680040955543518
-0.13582471013069153
-0.10793615877628326
-0.06943029165267944
-0.04748135805130005
-0.020748751237988472
0.014666646718978882
-0.3959999978542328
-0.36915940046310425
-0.33654388785362244
-0.30416005849838257
-0.2886461615562439
-0.26305752992630005
-0.2202012687921524
-0.18784962594509125
-0.16199859976768494
-0.13741685450077057
-0.09134829044342041
-0.0767778530716896
-0.053795989602804184
-0.027785154059529305
0.013979789800941944
0.04400002956390381
-0.36666667461395264
-0.33534887433052063
-0.306789755821228
-0.28933942317962646
-0.2383279800415039
-0.22466272115707397
-0.1978551596403122
-0.14406177401542664
-0.1274898648262024
-0.11605404317378998
-0.0889531672000885
-0.038286566734313965
-0.015089084394276142
0.01050716545432806
0.044868502765893936
0.07333329319953918
-0.3373333811759949
-0.3183321952819824
-0.27507391571998596
-0.2442895919084549
-0.21746043860912323
-0.1845160573720932
-0.16104422509670258
-0.12573924660682678
-0.10757318139076233
-0.07094969600439072
-0.04794636741280556
-0.01883937232196331
0.005871903151273727
0.0391375795006752
0.07342711836099625
0.10266664624214172
-0.30800002813339233
-0.2845951020717621
-0.24761460721492767
-0.21463046967983246
-0.1960202008485794
-0.16113586723804474
-0.13525961339473724
-0.09645964950323105
-0.08281445503234863
-0.04045317694544792
-0.020139528438448906
0.007852568291127682
0.03981843963265419
0.07277442514896393
0.10537724941968918
0.13199996948242188
-0.2786666750907898
-0.25495707988739014
-0.19846434891223907
-0.19526523351669312
-0.1508011817932129
-0.13617445528507233
-0.10492529720067978
-0.08271071314811707
-0.04647674411535263
-0.021729351952672005
0.012617239728569984
0.049486275762319565
0.06302883476018906
0.09020845592021942
0.12575095891952515
0.1613333523273468
-0.24933332204818726
-0.21965515613555908
-0.19760040938854218
-0.1697380095720291
-0.14045339822769165
-0.10870558023452759
-0.06691400706768036
-0.04424923285841942
-0.0008132602670229971
0.01941770873963833
0.035440173000097275
0.0753074437379837
0.09313825517892838
0.13678759336471558
0.16628970205783844
0.19066664576530457
-0.2199999988079071
-0.1954970806837082
-0.14595289528369904
-0.12918390333652496
-0.10925332456827164
-0.07653530687093735
-0.034682732075452805
-0.018737461417913437
0.019463520497083664
0.039066608995199203
0.0802089050412178
0.0842309519648552
0.1513136476278305
0.15845566987991333
0.1897953897714615
0.2199999988079071
-0.19066667556762695
-0.16494257748126984
-0.13811123371124268
-0.10057017207145691
-0.0712011530995369
-0.050143517553806305
-0.015578326769173145
0.01831476390361786
0.04376167058944702
0.06737954169511795
0.10169389098882675
0.13552439212799072
0.1664387583732605
0.19317865371704102
0.22725942730903625
0.24933332204818726
-0.1613333374261856
-0.13200002908706665
-0.10266664624214172
-0.07333329319953918
-0.04400002956390381
-0.014666721224784851
0.014666646718978882
0.04400002956390381
0.07333329319953918
0.10266664624214172
0.13199996948242188
0.1613333523273468
0.19066664576530457
0.2199999988079071
0.24933332204818726
0.2786666750907898
-0.5720000267028809
-0.5426666736602783
-0.5133333206176758
-0.48399999737739563
-0.4546666741371155
-0.42533332109451294
-0.3959999978542328
-0.36666667461395264
-0.3373333513736725
-0.30800002813339233
-0.2786667048931122
-0.24933332204818726
-0.2200000286102295
-0.19066664576530457
-0.1613333523273468
-0.13199999928474426
-0.5426666736602783
-0.5138562321662903
-0.47743311524391174
-0.4539957642555237
-0.41844311356544495
-0.4027327001094818
-0.3511752188205719
-0.34153130650520325
-0.3156530261039734
-0.2829066216945648
-0.24574002623558044
-0.21664421260356903
-0.18669715523719788
-0.1595529168844223
-0.13780111074447632
-0.10266658663749695
-0.5133333206176758
-0.48997077345848083
-0.44758206605911255
-0.4341065287590027
-0.4069547653198242
-0.37188631296157837
-0.3345821499824524
-0.3189525008201599
-0.2854103744029999
-0.24486111104488373
-0.22279661893844604
-0.2018362134695053
-0.1735835075378418
-0.12923495471477509
-0.10193052887916565
-0.07333329319953918
-0.48399999737739563
-0.4527832269668579
-0.43456560373306274
-0.38773050904273987
-0.36168211698532104
-0.35087284445762634
-0.3107466399669647
-0.27535757422447205
-0.24206328392028809
-0.2321467399597168
-0.18357932567596436
-0.16668158769607544
-0.14776936173439026
-0.0982540175318718
-0.08070968836545944
-0.04399999976158142
-0.4546666741371155
-0.4172215163707733
-0.41026490926742554
-0.3599677085876465
-0.3401007056236267
-0.3081224262714386
-0.2834204137325287
-0.2574717402458191
-0.22647857666015625
-0.21309863030910492
-0.16931480169296265
-0.13458281755447388
-0.1253962367773056
-0.08649267256259918
-0.04617370292544365
-0.014666616916656494
-0.42533332109451294
-0.3884955942630768
-0.37489691376686096
-0.3429000675678253
-0.3081645667552948
-0.2922777533531189
-0.24082700908184052
-0.2114584892988205
-0.20071165263652802
-0.1399068385362625
-0.1475554257631302
-0.10592451691627502
-0.07851783186197281
-0.05304061621427536
-0.016935769468545914
0.014666691422462463
-0.3959999978542328
-0.35857290029525757
-0.3344002068042755
-0.30675816535949707
-0.28786027431488037
-0.23355844616889954
-0.2215317040681839
-0.18902961909770966
-0.1635911613702774
-0.1334541290998459
-0.11362461000680923
-0.06754525005817413
-0.04920094460248947
-0.027089279145002365
0.01151218730956316
0.044000059366226196
-0.36666667461395264
-0.3294921815395355
-0.29918187856674194
-0.2656519114971161
-0.25606003403663635
-0.22827498614788055
-0.19754664599895477
-0.16302847862243652
-0.11887820810079575
-0.11774700880050659
-0.0769365206360817
-0.04148677736520767
-0.026363631710410118
0.01501545961946249
0.053367309272289276
0.07333338260650635
-0.3373333513736725
-0.30124372243881226
-0.27407434582710266
-0.2461906522512436
-0.224777951836586
-0.19797413051128387
-0.15848961472511292
-0.15955866873264313
-0.11640140414237976
-0.06318344175815582
-0.04331852123141289
-0.024834318086504936
0.016390621662139893
0.06011689081788063
0.07207460701465607
0.10266667604446411
-0.30799999833106995
-0.2742239832878113
-0.24748215079307556
-0.2222195714712143
-0.1771857589483261
-0.1749381273984909
-0.1266656219959259
-0.08386285603046417
-0.06903431564569473
-0.037305980920791626
-0.004410295281559229
0.009859615005552769
0.03202085942029953
0.07276106625795364
0.11026802659034729
0.13199999928474426
-0.2786666750907898
-0.2599647641181946
-0.21589875221252441
-0.1953900009393692
-0.154210165143013
-0.15550856292247772
-0.11754374206066132
-0.07193273305892944
-0.04263830557465553
-0.0018324347911402583
0.02413375861942768
0.04904227331280708
0.08736322820186615
0.0899229347705841
0.12931138277053833
0.16133330762386322
-0.24933332204818726
-0.23263533413410187
-0.19286932051181793
-0.16767263412475586
-0.14040228724479675
-0.10031868517398834
-0.06564701348543167
-0.04763328656554222
-0.008715815842151642
0.01462768018245697
0.04364408552646637
0.0509452149271965
0.1039632186293602
0.1232626810669899
0.15559081733226776
0.19066670536994934
-0.2199999988079071
-0.19208836555480957
-0.1606273204088211
-0.11697449535131454
-0.10195265710353851
-0.08597135543823242
-0.04854361340403557
-0.01684459112584591
0.011730794794857502
0.04884527623653412
0.07708294689655304
0.11398758739233017
0.13109707832336426
0.1560625284910202
0.17883262038230896
0.2199999988079071
-0.19066664576530457
-0.15272866189479828
-0.13905951380729675
-0.09186772257089615
-0.06636960059404373
-0.04840318486094475
-0.019628560170531273
0.0023186008911579847
0.04450497031211853
0.06858092546463013
0.09738918393850327
0.12818318605422974
0.16076447069644928
0.19876889884471893
0.22110195457935333
0.24933332204818726
-0.1613333523273468
-0.1275489330291748
-0.095264732837677
-0.06684304028749466
-0.04368584230542183
-0.010912265628576279
0.008909370750188828
0.04175487160682678
0.07013385742902756
0.10101784020662308
0.14010629057884216
0.1506674885749817
0.20471341907978058
0.21544843912124634
0.24499957263469696
0.2786666750907898
-0.13199999928474426
-0.10266660153865814
-0.07333329319953918
-0.04399999976158142
-0.01466667652130127
0.014666631817817688
0.04399999976158142
0.07333338260650635
0.10266667604446411
0.13199999928474426
0.16133330762386322
0.19066670536994934
0.2200000286102295
0.24933335185050964
0.2786666750907898
0.30799999833106995
-0.5426666736602783
-0.5133333802223206
-0.48399996757507324
-0.4546666741371155
-0.4253333508968353
-0.3959999680519104
-0.36666667461395264
-0.3373333513736725
-0.30800002813339233
-0.2786666750907898
-0.24933336675167084
-0.2199999988079071
-0.19066670536994934
-0.1613333523273468
-0.13199999928474426
-0.10266667604446411
-0.5133333206176758
-0.484939843416214
-0.4491632580757141
-0.4278116822242737
-0.38907453417778015
-0.38472825288772583
-0.34101402759552
-0.3053760230541229
-0.2747233211994171
-0.24614164233207703
-0.2234880030155182
-0.1890868991613388
-0.16696058213710785
-0.13540956377983093
-0.10087789595127106
-0.07333335280418396
-0.48399999737739563
-0.4559869170188904
-0.43237730860710144
-0.39235737919807434
-0.37417250871658325
-0.353031188249588
-0.3056003451347351
-0.2785688042640686
-0.2250038981437683
-0.20493090152740479
-0.20113547146320343
-0.15621018409729004
-0.14899134635925293
-0.11111235618591309
-0.0691235288977623
-0.04400002956390381
-0.4546666741371155
-0.4309975206851959
-0.3800415098667145
-0.3576793074607849
-0.3346576988697052
-0.3064725995063782
-0.2748773396015167
-0.25065240263938904
-0.2132762223482132
-0.19324956834316254
-0.17881400883197784
-0.12354815006256104
-0.10529905557632446
-0.07278728485107422
-0.052027974277734756
-0.01466667652130127
-0.4253333508968353
-0.39504116773605347
-0.3692236542701721
-0.3366146981716156
-0.3115491271018982
-0.28390708565711975
-0.26858240365982056
-0.22016994655132294
-0.19092439115047455
-0.1835949867963791
-0.1441488415002823
-0.08044963330030441
-0.07078463584184647
-0.05458543449640274
-0.016127128154039383
0.014666646718978882
-0.3959999680519104
-0.37285715341567993
-0.328514963388443
-0.2861132025718689
-0.2682388126850128
-0.23902414739131927
-0.22676806151866913
-0.18558506667613983
-0.17076361179351807
-0.14620719850063324
-0.09947489202022552
-0.0678446888923645
-0.06001048535108566
-0.02051030658185482
0.01282108947634697
0.04399999976158142
-0.36666667461395264
-0.3481111228466034
-0.30806317925453186
-0.26753732562065125
-0.2580634355545044
-0.2148829847574234
-0.20019736886024475
-0.1351676732301712
-0.14293524622917175
-0.10828910022974014
-0.07228067517280579
-0.05354102700948715
-0.015082675032317638
0.019119925796985626
0.06356406211853027
0.07333333790302277
-0.3373333513736725
-0.3044605255126953
-0.2626490890979767
-0.26284363865852356
-0.21828320622444153
-0.18023397028446198
-0.1595260351896286
-0.11578791588544846
-0.09521190077066422
-0.05081117898225784
-0.03157252073287964
0.007476013619452715
0.02657466009259224
0.055976368486881256
0.07706787437200546
0.1026667058467865
-0.30800002813339233
-0.2809264063835144
-0.24986404180526733
-0.2305142730474472
-0.20436440408229828
-0.17074301838874817
-0.13490989804267883
-0.08701714128255844
-0.04658988118171692
-0.06123026832938194
0.00434809410944581
0.024944426491856575
0.0505593977868557
0.05715123191475868
0.10240816324949265
0.13199995458126068
-0.2786666750907898
-0.2532237768173218
-0.22964297235012054
-0.17743752896785736
-0.17671005427837372
-0.13902224600315094
-0.0907924696803093
-0.06411852687597275
-0.03297760710120201
-0.03199814632534981
0.011741039343178272
0.038275279104709625
0.043717216700315475
0.07732601463794708
0.13149753212928772
0.1613333374261856
-0.24933336675167084
-0.22014255821704865
-0.18974971771240234
-0.15447813272476196
-0.14149582386016846
-0.10189183056354523
-0.08196748048067093
-0.030124135315418243
-0.004752791486680508
0.0377238467335701
0.043368738144636154
0.07030560076236725
0.09882714599370956
0.12170302122831345
0.1716572493314743
0.19066664576530457
-0.2199999988079071
-0.19338364899158478
-0.14636138081550598
-0.1399843543767929
-0.10135423392057419
-0.0854431688785553
-0.020230678841471672
-0.019004376605153084
0.003974544815719128
0.04877229407429695
0.04660533368587494
0.09527259320020676
0.12058977782726288
0.16023123264312744
0.18532922863960266
0.2199999988079071
-0.19066670536994934
-0.16852325201034546
-0.13818931579589844
-0.09486214816570282
-0.07362252473831177
-0.04718504101037979
-0.004022517707198858
0.015740172937512398
0.038681209087371826
0.08638633787631989
0.09731751680374146
0.1250506043434143
0.15085957944393158
0.20536839962005615
0.22745798528194427
0.24933332204818726
-0.1613333523273468
-0.11645520478487015
-0.10249247401952744
-0.08087404072284698
-0.06306713074445724
-0.008434816263616085
-0.002961616963148117
0.04859001561999321
0.07421067357063293
0.0987909585237503
0.14230987429618835
0.1616538017988205
0.1980157345533371
0.23516859114170074
0.25089868903160095
0.2786666750907898
-0.13199999928474426
-0.10879276692867279
-0.07422525435686111
-0.046924322843551636
-0.012900887988507748
0.025437993928790092
0.04291781783103943
0.07386106997728348
0.10213743895292282
0.1216917335987091
0.16224391758441925
0.19414019584655762
0.23058100044727325
0.2560470700263977
0.28149741888046265
0.30799996852874756
-0.10266667604446411
-0.07333335280418396
-0.04399996995925903
-0.014666616916656494
0.014666646718978882
0.04399999976158142
0.07333333790302277
0.1026667058467865
0.13200002908706665
0.1613333374261856
0.19066664576530457
0.2199999988079071
0.24933332204818726
0.2786666750907898
0.30799996852874756
0.3373333215713501
-0.5133333206176758
-0.48399996757507324
-0.4546666741371155
-0.42533329129219055
-0.3959999680519104
-0.36666661500930786
-0.3373332619667053
-0.30799993872642517
-0.2786666750907898
-0.24933330714702606
-0.21999996900558472
-0.19066664576530457
-0.16133329272270203
-0.13199995458126068
-0.10266664624214172
-0.07333332300186157
-0.48399999737739563
-0.4621753692626953
-0.42990508675575256
-0.39400091767311096
-0.36438465118408203
-0.34381556510925293
-0.30677393078804016
-0.2751946449279785
-0.2539515197277069
-0.22309072315692902
-0.17376786470413208
-0.16235418617725372
-0.1304096132516861
-0.09956376999616623
-0.0769425556063652
-0.04399999976158142
-0.4546666443347931
-0.4196440279483795
-0.40675705671310425
-0.3603525757789612
-0.3414933979511261
-0.297270804643631
-0.2805043160915375
-0.25469639897346497
-0.21392002701759338
-0.20372870564460754
-0.16597189009189606
-0.10272920876741409
-0.08714956045150757
-0.07352632284164429
-0.04533739387989044
-0.014666721224784851
-0.42533332109451294
-0.391184538602829
-0.36585670709609985
-0.34006693959236145
-0.33164605498313904
-0.2757759392261505
-0.2512878477573395
-0.21081410348415375
-0.19350112974643707
-0.157657653093338
-0.1229095607995987
-0.08930149674415588
-0.08951770514249802
-0.06113148853182793
-0.011573917232453823
0.014666631817817688
-0.3959999680519104
-0.3640419840812683
-0.33480650186538696
-0.3289969265460968
-0.28540313243865967
-0.23663285374641418
-0.24045772850513458
-0.17268499732017517
-0.1631067991256714
-0.14616860449314117
-0.10392481088638306
-0.08938547968864441
-0.054935988038778305
-0.022251851856708527
0.009888948872685432
0.04399999976158142
-0.36666661500930786
-0.34359246492385864
-0.3054163157939911
-0.27191299200057983
-0.25880300998687744
-0.2317236214876175
-0.19622832536697388
-0.15250955522060394
-0.14555604755878448
-0.08812722563743591
-0.0649273544549942
-0.04790160432457924
0.00835759099572897
0.009027048945426941
0.04338662698864937
0.07333335280418396
-0.3373332917690277
-0.30113765597343445
-0.28441324830055237
-0.2438066005706787
-0.22214987874031067
-0.17251867055892944
-0.1772572249174118
-0.13689754903316498
-0.11156404763460159
-0.0709814727306366
-0.04066914692521095
-0.015370123088359833
0.021770969033241272
0.027313271537423134
0.07409586757421494
0.10266672074794769
-0.30799996852874756
-0.27917128801345825
-0.22121310234069824
-0.22031991183757782
-0.2014949470758438
-0.16523414850234985
-0.12967339158058167
-0.12357572466135025
-0.060327574610710144
-0.030863817781209946
-0.010806997306644917
0.00928411167114973
0.062293991446495056
0.06737493723630905
0.09000331163406372
0.13200004398822784
-0.2786666750907898
-0.23916327953338623
-0.22541400790214539
-0.19466952979564667
-0.1765536367893219
-0.11779457330703735
-0.08982036262750626
-0.08299534022808075
-0.05605929717421532
-0.020221054553985596
0.008785786107182503
0.03528152406215668
0.06369314342737198
0.10041574388742447
0.13757465779781342
0.1613333821296692
-0.24933333694934845
-0.22480012476444244
-0.19115501642227173
-0.17369259893894196
-0.12533389031887054
-0.114509217441082
-0.0612780898809433
-0.04576675593852997
-0.024547714740037918
0.014373302459716797
0.030786624178290367
0.04687552899122238
0.11959274858236313
0.12738358974456787
0.17043380439281464
0.19066667556762695
-0.2199999839067459
-0.19386431574821472
-0.1714523881673813
-0.14623990654945374
-0.108468197286129
-0.08358247578144073
-0.04873516410589218
-0.027528000995516777