# vtk DataFile Version 3.0
WoSt boundary bias detector
ASCII
DATASET STRUCTURED_POINTS
DIMENSIONS 8 8 8
ORIGIN -0.22 -0.22 -0.22
SPACING 0.062857144 0.062857144 0.062857144
POINT_DATA 512
SCALARS solution_epsilon float 1
LOOKUP_TABLE default
-0.65999997
-0.59714282
-0.53428566
-0.47142857
-0.40857142
-0.34571427
-0.28285715
-0.22
-0.59714282
-0.53428566
-0.47142854
-0.40857142
-0.34571427
-0.28285712
-0.22
-0.15714285
-0.53428566
-0.47142854
-0.40857142
-0.34571427
-0.28285712
-0.21999998
-0.15714286
-0.094285712
-0.47142857
-0.40857142
-0.34571427
-0.28285715
-0.22
-0.15714285
-0.094285727
-0.031428576
-0.40857142
-0.34571427
-0.28285712
-0.22
-0.15714285
-0.094285697
-0.031428576
0.031428576
-0.34571427
-0.28285712
-0.21999998
-0.15714285
-0.094285697
-0.031428546
0.031428576
0.094285727
-0.28285715
-0.22
-0.15714286
-0.094285727
-0.031428576
0.031428576
0.094285697
0.15714285
-0.22
-0.15714285
-0.094285712
-0.031428576
0.031428576
0.094285727
0.15714285
0.22
-0.59714282
-0.53428566
-0.47142854
-0.40857142
-0.34571427
-0.28285712
-0.22
-0.15714285
-0.53428566
-0.46476576
-0.36276054
-0.36692908
-0.21226241
-0.21024494
-0.17004906
-0.094285697
-0.47142854
-0.41957784
-0.39141726
-0.34668916
-0.27551624
-0.16428252
-0.097710766
-0.031428561
-0.40857142
-0.3808409
-0.29813892
-0.26048529
-0.14696828
-0.025632812
-0.059511527
0.031428576
-0.34571427
-0.29939032
-0.18972325
-0.20639089
-0.11279536
-0.049953744
0.02151628
0.094285727
-0.28285712
-0.25345799
-0.14085318
-0.093472004
-0.071349449
0.0022785414
0.093735941
0.15714288
-0.22
-0.16415451
-0.094337501
-0.015126531
0.017195115
0.089622028
0.1584141
0.22
-0.15714285
-0.094285697
-0.031428561
0.031428576
0.094285727
0.15714288
0.22
0.28285715
-0.53428572
-0.47142857
-0.40857142
-0.34571427
-0.28285712
-0.21999998
-0.15714286
-0.094285712
-0.47142857
-0.39569393
-0.36993176
-0.25724038
-0.19828136
-0.17108713
-0.051367644
-0.031428561
-0.40857142
-0.37128678
-0.29211706
-0.23130246
-0.20389685
-0.14775702
-0.035968997
0.031428576
-0.34571427
-0.30269814
-0.22957401
-0.27257138
-0.11879821
-0.10403146
0.021021504
0.094285712
nan
-0.23009218
-0.15365136
-0.14007182
-0.11167239
-0.010210372
0.047186911
0.15714286
-0.21999998
-0.18525295
-0.13695897
-0.060335524
-0.05012406
0.18205793
0.16293946
0.22000001
-0.15714286
-0.11671834
-0.055043332
-0.011063789
0.11357401
0.14176802
0.19180007
0.28285712
-0.094285712
-0.031428561
0.031428576
0.094285712
0.15714286
0.22000001
0.28285712
0.34571427
-0.47142857
-0.40857142
-0.34571427
-0.28285715
-0.22
-0.15714285
-0.094285727
-0.031428576
-0.40857142
-0.37189284
-0.30402851
-0.17353366
-0.18233533
-0.063819669
-0.06637644
0.031428576
-0.34571427
-0.29463217
-0.28052214
-0.20972291
-0.1500356
-0.063143648
0.032087233
0.094285712
-0.28285715
-0.26850742
-0.23472302
-0.093781926
-0.071210019
0.003180095
0.10276874
0.15714285
-0.22
-0.19903083
-0.29149514
-0.19226477
0.00065730768
0.11431771
0.23710522
0.22
-0.15714285
-0.1556984
-0.15961236
-0.074049257
0.14579953
0.20028831
0.2502661
0.28285715
-0.094285727
-0.05854011
-0.057809677
0.005870698
0.17199461
0.26841676
0.30431557
0.34571427
-0.031428576
0.031428576
0.094285712
0.15714285
0.22
0.28285715
0.34571427
0.40857142
-0.40857142
-0.34571427
-0.28285712
-0.22
-0.15714285
-0.094285697
-0.031428576
0.031428576
-0.34571427
-0.27521446
-0.24687448
-0.18912069
-0.096685588
-0.039599076
0.051040575
0.094285727
-0.28285712
-0.18090838
-0.18697208
-0.087021895
0.019225657
-0.0086064693
0.11338934
0.15714286
-0.22
-0.20792553
-0.17665736
-0.060398534
-0.019696988
0.044555206
0.15818068
0.22
-0.15714285
-0.18282591
-0.1076638
-0.10606907
0.093921587
0.24031159
0.27743948
0.28285715
-0.094285697
-0.05013901
-0.11478522
nan
nan
0.38420534
0.31431505
0.3457143
-0.031428576
-0.027666716
0.099000543
0.32527211
0.33573908
0.34581345
0.36749583
0.40857142
0.031428576
0.094285727
0.15714286
0.22
0.28285715
0.3457143
0.40857142
0.47142857
-0.34571427
-0.28285712
-0.21999997
-0.15714285
-0.094285697
-0.031428546
0.031428576
0.094285727
-0.28285712
-0.25047299
-0.18995897
-0.14438517
-0.041584145
-0.0081525976
0.1023583
0.15714288
-0.21999997
-0.17061159
-0.056147277
-0.031431995
0.022811428
0.019147845
0.17330186
0.22000001
-0.15714285
-0.065099873
-0.040409386
0.032649092
0.092376217
0.13438804
0.21300438
0.28285715
-0.094285697
-0.065799326
0.034817241
0.037693411
0.2278375
0.23440392
0.20872758
0.3457143
-0.031428546
0.054844037
0.18270937
0.23305275
0.26011777
0.31107074
0.39476523
0.40857145
0.031428576
0.086624756
nan
0.32055759
0.29696321
0.40387741
0.41333601
0.47142857
0.094285727
0.15714288
0.22000001
0.28285715
0.3457143
0.40857145
0.47142857
0.53428572
-0.28285715
-0.22
-0.15714285
-0.094285727
-0.031428576
0.031428576
0.094285697
0.15714285
-0.22
-0.1528101
-0.10893779
-0.0059731933
-0.042891651
0.10306517
0.13360031
0.22
-0.15714285
-0.052639399
-0.06699641
0.0077586863
0.11644788
0.12965547
0.24298304
0.28285712
-0.094285727
-0.021255363
0.030982926
0.1253227
0.091172375
0.23108266
0.27976784
0.34571427
-0.031428576
0.062340286
0.088578016
0.10894155
0.20593429
0.30803519
0.38333449
0.40857142
0.031428576
0.079314336
0.22449453
0.24770673
0.28496313
0.33713773
0.44274104
0.47142857
0.094285697
0.18619141
0.21718359
0.30141732
0.39481953
0.40328693
0.47452185
0.53428566
0.15714285
0.22
0.28285712
0.34571427
0.40857142
0.47142857
0.53428566
0.59714282
-0.22
-0.15714285
-0.094285697
-0.031428576
0.031428576
0.094285727
0.15714285
0.22
-0.15714285
-0.094285697
-0.031428546
0.031428576
0.094285727
0.15714288
0.22
0.28285715
-0.094285697
-0.031428546
0.031428576
0.094285712
0.15714286
0.22000001
0.28285712
0.34571427
-0.031428576
0.031428576
0.094285712
0.15714285
0.22
0.28285715
0.34571427
0.40857142
0.031428576
0.094285727
0.15714286
0.22
0.28285715
0.3457143
0.40857142
0.47142857
0.094285727
0.15714288
0.22000001
0.28285715
0.3457143
0.40857145
0.47142857
0.53428572
0.15714285
0.22
0.28285712
0.34571427
0.40857142
0.47142857
0.53428566
0.59714282
0.22
0.28285715
0.34571427
0.40857142
0.47142857
0.53428572
0.59714282
0.65999997
SCALARS solution_epsilon_half float 1
LOOKUP_TABLE default
-0.65999997
-0.59714282
-0.53428566
-0.47142857
-0.40857142
-0.34571427
-0.28285715
-0.22
-0.59714282
-0.53428566
-0.47142854
-0.40857142
-0.34571427
-0.28285712
-0.22
-0.15714285
-0.53428566
-0.47142854
-0.40857142
-0.34571427
-0.28285712
-0.21999998
-0.15714286
-0.094285712
-0.47142857
-0.40857142
-0.34571427
-0.28285715
-0.22
-0.15714285
-0.094285727
-0.031428576
-0.40857142
-0.34571427
-0.28285712
-0.22
-0.15714285
-0.094285697
-0.031428576
0.031428576
-0.34571427
-0.28285712
-0.21999998
-0.15714285
-0.094285697
-0.031428546
0.031428576
0.094285727
-0.28285715
-0.22
-0.15714286
-0.094285727
-0.031428576
0.031428576
0.094285697
0.15714285
-0.22
-0.15714285
-0.094285712
-0.031428576
0.031428576
0.094285727
0.15714285
0.22
-0.59714282
-0.53428566
-0.47142854
-0.40857142
-0.34571427
-0.28285712
-0.22
-0.15714285
-0.53428566
-0.45633915
-0.38062346
-0.36732152
-0.24628222
-0.20462318
-0.1678267
-0.094285697
-0.47142854
-0.39013556
-0.34322035
-0.26017013
-0.25998709
-0.17394108
-0.1048784
-0.031428561
-0.40857142
-0.385463
-0.30261526
-0.26207083
-0.14920315
-0.068772227
-0.048116714
0.031428576
-0.34571427
-0.2726295
-0.22079155
-0.21629311
-0.063245304
-0.035447855
0.040858578
0.094285727
-0.28285712
-0.24673063
-0.16016105
-0.051220365
-0.10921437
-0.045941055
0.060691118
0.15714288
-0.22
-0.15485714
-0.1070572
-0.01601102
0.015997417
0.072357088
0.16041486
0.22
-0.15714285
-0.094285697
-0.031428561
0.031428576
0.094285727
0.15714288
0.22
0.28285715
-0.53428572
-0.47142857
-0.40857142
-0.34571427
-0.28285712
-0.21999998
-0.15714286
-0.094285712
-0.47142857
-0.40880719
-0.3532891
-0.26175767
-0.23217815
-0.19253114
-0.071331672
-0.031428561
-0.40857142
-0.34207389
-0.30801788
-0.18557075
-0.10312705
-0.10939598
-0.039770067
0.031428576
-0.34571427
-0.27033177
-0.27365384
-0.202043
-0.13074234
-0.076699965
0.017138673
0.094285712
nan
-0.25702825
-0.18069001
-0.10139994
-0.086784035
-0.062586762
0.072163761
0.15714286
-0.21999998
-0.19366507
-0.11489417
-0.090629011
0.021587446
0.14858992
0.17581324
0.22000001
-0.15714286
-0.12384053
-0.048102062
0.025585355
0.17323217
0.14516146
0.19880325
0.28285712
-0.094285712
-0.031428561
0.031428576
0.094285712
0.15714286
0.22000001
0.28285712
0.34571427
-0.47142857
-0.40857142
-0.34571427
-0.28285715
-0.22
-0.15714285
-0.094285727
-0.031428576
-0.40857142
-0.32898316
-0.27829739
-0.18718597
-0.18808345
-0.05334346
-0.067607462
0.031428576
-0.34571427
-0.25370693
-0.231931
-0.2581259
-0.14382182
0.019177161
0.058823153
0.094285712
-0.28285715
-0.25855526
-0.19031261
-0.17500877
-0.076385349
-0.032609001
0.08423581
0.15714285
-0.22
-0.2064909
-0.18365251
-0.12956887
-0.10149359
0.12171932
0.13582066
0.22
-0.15714285
-0.15013367
-0.085279308
-0.084116794
0.125966
0.18895574
0.22438206
0.28285715
-0.094285727
-0.024404917
-0.065769881
-0.062906168
0.21228911
0.19496432
0.30799901
0.34571427
-0.031428576
0.031428576
0.094285712
0.15714285
0.22
0.28285715
0.34571427
0.40857142
-0.40857142
-0.34571427
-0.28285712
-0.22
-0.15714285
-0.094285697
-0.031428576
0.031428576
-0.34571427
-0.29090032
-0.25372609
-0.13995694
-0.072521359
-0.02717655
0.078528896
0.094285727
-0.28285712
-0.16694
-0.14370206
-0.096379511
0.041223921
0.036927223
0.13830601
0.15714286
-0.22
-0.23424399
-0.066988721
-0.086045898
-0.034388471
0.087185174
0.15498914
0.22
-0.15714285
-0.16593012
-0.10507908
-0.019004814
0.10708278
0.20985509
0.28493157
0.28285715
-0.094285697
-0.012101813
-0.071698815
nan
nan
0.297189
0.32250229
0.3457143
-0.031428576
-0.025822017
0.1311145
0.27772275
0.27956289
0.26735458
0.36017185
0.40857142
0.031428576
0.094285727
0.15714286
0.22
0.28285715
0.3457143
0.40857142
0.47142857
-0.34571427
-0.28285712
-0.21999997
-0.15714285
-0.094285697
-0.031428546
0.031428576
0.094285727
-0.28285712
-0.25277254
-0.16280143
-0.14812395
-0.035312224
0.0033189824
0.13298053
0.15714288
-0.21999997
-0.1621004
-0.03773617
-0.046788454
0.035223294
0.043010779
0.16171747
0.22000001
-0.15714285
-0.10032741
-0.022363873
0.063193612
0.18852767
0.096154898
0.24107772
0.28285715
-0.094285697
-0.087466188
0.052265488
0.10448211
0.1779884
0.22339724
0.27769041
0.3457143
-0.031428546
0.032021545
0.063183881
0.1962819
0.29606992
0.3677749
0.40181354
0.40857145
0.031428576
0.13151599
nan
0.21316016
0.30590191
0.39035317
0.44471741
0.47142857
0.094285727
0.15714288
0.22000001
0.28285715
0.3457143
0.40857145
0.47142857
0.53428572
-0.28285715
-0.22
-0.15714285
-0.094285727
-0.031428576
0.031428576
0.094285697
0.15714285
-0.22
-0.15016998
-0.12873253
-0.04774148
-0.068823971
0.087760784
0.15270177
0.22
-0.15714285
-0.085855201
-0.077415705
0.043797944
0.10058512
0.12600704
0.23334818
0.28285712
-0.094285727
-0.014879262
0.039103437
0.070130192
0.088196672
0.20335679
0.3195875
0.34571427
-0.031428576
0.081264958
0.086729541
0.12906323
0.21453318
0.29611933
0.36962911
0.40857142
0.031428576
0.10369895
0.25801882
0.24596488
0.32311213
0.32706946
0.43724301
0.47142857
0.094285697
0.17899524
0.17052303
0.29883805
0.37926883
0.43759546
0.44434798
0.53428566
0.15714285
0.22
0.28285712
0.34571427
0.40857142
0.47142857
0.53428566
0.59714282
-0.22
-0.15714285
-0.094285697
-0.031428576
0.031428576
0.094285727
0.15714285
0.22
-0.15714285
-0.094285697
-0.031428546
0.031428576
0.094285727
0.15714288
0.22
0.28285715
-0.094285697
-0.031428546
0.031428576
0.094285712
0.15714286
0.22000001
0.28285712
0.34571427
-0.031428576
0.031428576
0.094285712
0.15714285
0.22
0.28285715
0.34571427
0.40857142
0.031428576
0.094285727
0.15714286
0.22
0.28285715
0.3457143
0.40857142
0.47142857
0.094285727
0.15714288
0.22000001
0.28285715
0.3457143
0.40857145
0.47142857
0.53428572
0.15714285
0.22
0.28285712
0.34571427
0.40857142
0.47142857
0.53428566
0.59714282
0.22
0.28285715
0.34571427
0.40857142
0.47142857
0.53428572
0.59714282
0.65999997
SCALARS bias_indicator float 1
LOOKUP_TABLE default
0
0
0
0
0
0
0
0
0
0
0
0
0
0
0
0
0
0
0
0
0
0
0
0
0
0
0
0
0
0
0
0
0
0
0
0
0
0
0
0
0
0
0
0
0
0
0
0
0
0
0
0
0
0
0
0
0
0
0
0
0
0
0
0
0
0
0
0
0
0
0
0
0
0.0084266067
0.017862916
0.00039243698
0.034019813
0.0056217611
0.0022223592
0
0
0.029442281
0.048196912
0.086519033
0.015529156
0.0096585602
0.0071676373
0
0
0.0046221018
0.0044763386
0.0015855432
0.0022348762
0.043139413
0.011394814
0
0
0.026760817
0.031068295
0.0099022239
0.049550056
0.014505889
0.019342298
0
0
0.0067273676
0.019307867
0.042251639
0.037864923
0.048219595
0.033044823
0
0
0.0092973709
0.012719698
0.00088448916
0.0011976976
0.01726494
0.002000764
0
0
0
0
0
0
0
0
0
0
0
0
0
0
0
0
0
0
0.01311326
0.01664266
0.004517287
0.033896789
0.021444008
0.019964028
0
0
0.029212892
0.01590082
0.045731708
0.1007698
0.038361043
0.0038010702
0
0
0.032366365
0.044079825
0.070528388
0.01194413
0.027331494
0.003882831
0
nan
0.026936069
0.027038649
0.038671881
0.024888352
0.05237639
0.02497685
0
0
0.0084121227
0.022064805
0.030293487
0.07171151
0.033468008
0.012873784
0
0
0.0071221814
0.0069412701
0.036649145
0.059658162
0.0033934414
0.0070031732
0
0
0
0
0
0
0
0
0
0
0
0
0
0
0
0
0
0
0.042909682
0.025731117
0.01365231
0.0057481229
0.010476209
0.0012310222
0
0
0.040925235
0.048591137
0.048402995
0.0062137842
0.082320809
0.02673592
0
0
0.0099521577
0.044410408
0.081226848
0.0051753297
0.035789095
0.018532932
0
0
0.0074600726
0.10784264
0.062695891
0.10215089
0.0074016079
0.10128456
0
0
0.0055647343
0.074333049
0.010067537
0.019833535
0.011332572
0.025884047
0
0
0.034135193
0.007960204
0.068776868
0.040294498
0.073452443
0.0036834478
0
0
0
0
0
0
0
0
0
0
0
0
0
0
0
0
0
0
0.015685856
0.0068516135
0.049163759
0.02416423
0.012422526
0.027488321
0
0
0.013968378
0.043270022
0.0093576163
0.021998264
0.045533694
0.024916664
0
0
0.026318461
0.10966864
0.025647365
0.014691483
0.042629968
0.0031915456
0
0
0.016895786
0.0025847256
0.087064251
0.01316119
0.030456498
0.0074920952
0
0
0.038037196
0.043086402
nan
nan
0.087016344
0.0081872344
0
0
0.0018446986
0.032113954
0.047549367
0.056176186
0.078458875
0.0073239803
0
0
0
0
0
0
0
0
0
0
0
0
0
0
0
0
0
0
0.0022995472
0.027157545
0.0037387758
0.0062719211
0.01147158
0.030622222
0
0
0.0085111856
0.018411107
0.015356459
0.012411866
0.023862934
0.011584386
0
0
0.035227537
0.018045513
0.030544519
0.096151456
0.038233146
0.028073341
0
0
0.021666862
0.017448246
0.066788696
0.049849108
0.011006683
0.068962827
0
0
0.022822492
0.11952548
0.03677085
0.035952151
0.056704164
0.0070483088
0
0
0.044891238
nan
0.10739744
0.0089387
0.013524234
0.031381398
0
0
0
0
0
0
0
0
0
0
0
0
0
0
0
0
0
0
0.0026401132
0.019794747
0.041768286
0.025932319
0.015304387
0.019101456
0
0
0.033215802
0.010419294
0.036039256
0.015862763
0.0036484301
0.0096348673
0
0
0.0063761007
0.0081205107
0.055192508
0.0029757023
0.027725875
0.039819658
0
0
0.018924672
0.0018484741
0.020121686
0.0085988939
0.011915863
0.013705373
0
0
0.02438461
0.03352429
0.0017418414
0.038148999
0.010068268
0.0054980218
0
0
0.0071961731
0.046660557
0.0025792718
0.015550703
0.034308523
0.030173868
0
0
0
0
0
0
0
0
0
0
0
0
0
0
0
0
0
0
0
0
0
0
0
0
0
0
0
0
0
0
0
0
0
0
0
0
0
0
0
0
0
0
0
0
0
0
0
0
0
0
0
0
0
0
0
0
0
0
0
0
0
0
0
0
0
0
0
0
0
0
0
0
0
SCALARS normalized_bias float 1
LOOKUP_TABLE default
0
0
0
0
0
0
0
0
0
0
0
0
0
0
0
0
0
0
0
0
0
0
0
0
0
0
0
0
0
0
0
0
0
0
0
0
0
0
0
0
0
0
0
0
0
0
0
0
0
0
0
0
0
0
0
0
0
0
0
0
0
0
0
0
0
0
0
0
0
0
0
0
0
0.15612647
0.27461725
0.012722302
0.59131157
0.1291533
0.044606172
0
0
0.61057758
1.0956575
1.4963918
0.27200955
0.17786688
0.17383645
0
0
0.13261564
0.06385608
0.031181635
0.035455175
0.53397363
0.2207441
0
0
0.58291417
0.5371955
0.19390693
0.6333617
0.25529337
0.39033538
0
0
0.16792096
0.29490411
0.71052802
0.63197386
0.82886136
0.54395181
0
0
0.22782674
0.28933218
0.021958383
0.022665916
0.33377722
0.062019583
0
0
0
0
0
0
0
0
0
0
0
0
0
0
0
0
0
0
0.24442919
0.41430679
0.072179571
0.56034333
0.42363894
0.38107851
0
0
0.62900507
0.24509804
0.58172804
1.3437665
0.58639735
0.061075766
0
0
0.56698394
0.67571002
0.85961175
0.15782976
0.39574337
0.060916934
0
nan
0.51083976
0.41233575
0.48429492
0.30821201
0.61352003
0.44645715
0
0
0.1362348
0.28063452
0.41012585
0.95391989
0.58690137
0.26766723
0
0
0.14144155
0.10052756
0.4604286
1.0890905
0.051059507
0.13577846
0
0
0
0
0
0
0
0
0
0
0
0
0
0
0
0
0
0
0.75580728
0.46742913
0.18869239
0.08043436
0.18710488
0.026621768
0
0
0.78701359
0.75482762
0.57670635
0.082471602
1.129933
0.47628725
0
0
0.19814527
0.64674467
0.76489955
0.051485565
0.43454918
0.25165707
0
0
0.1531416
1.5026295
0.65432757
1.1392361
0.07410983
1.699267
0
0
0.088677168
1.0959814
0.12713382
0.21685518
0.15880677
0.43805349
0
0
0.62144583
0.12552063
0.6978454
0.53434497
1.1137716
0.1092423
0
0
0
0
0
0
0
0
0
0
0
0
0
0
0
0
0
0
0.29288563
0.13938631
0.95665371
0.36836892
0.21057932
0.43150309
0
0
0.19595142
0.61511785
0.10950176
0.28359827
0.56586993
0.38871047
0
0
0.70256478
1.3666956
0.26929444
0.18248802
0.48045251
0.052116875
0
0
0.30621722
0.032457873
0.89441133
0.11948273
0.37901485
0.13278317
0
0
0.51164353
0.48042321
nan
nan
1.2321252
0.13108285
0
0
0.030049607
0.55453587
0.66424346
1.2120692
1.2052913
0.21458255
0
0
0
0
0
0
0
0
0
0
0
0
0
0
0
0
0
0
0.056368999
0.47493511
0.064461917
0.11355482
0.16255938
0.70901859
0
0
0.17348687
0.22929198
0.20189561
0.15396778
0.30634198
0.23518662
0
0
0.51518583
0.238626
0.33248344
1.0426444
0.44244686
0.45795864
0
0
0.35846111
0.19420415
0.69914728
0.60665911
0.13808008
0.92602807
0
0
0.32488942
1.5270395
0.4182072
0.42360115
0.88554478
0.18038441
0
0
1.0430168
nan
1.7108278
0.14213423
0.37727579
1.1075071
0
0
0
0
0
0
0
0
0
0
0
0
0
0
0
0
0
0
0.067648292
0.39788622
0.87000275
0.42460153
0.35117683
0.43240297
0
0
0.84798902
0.19190359
0.5380376
0.30558538
0.060442913
0.19466582
0
0
0.11920729
0.15003879
0.78958106
0.037377398
0.40308297
0.67437446
0
0
0.42413563
0.030027186
0.24719435
0.13309875
0.24685422
0.45491996
0
0
0.53084236
0.59083426
0.032368951
0.635481
0.17068861
0.1953546
0
0
0.23073737
0.77602261
0.056672528
0.50989759
1.1488051
0.81291854
0
0
0
0
0
0
0
0
0
0
0
0
0
0
0
0
0
0
0
0
0
0
0
0
0
0
0
0
0
0
0
0
0
0
0
0
0
0
0
0
0
0
0
0
0
0
0
0
0
0
0
0
0
0
0
0
0
0
0
0
0
0
0
0
0
0
0
0
0
0
0
0
0
SCALARS std_error_epsilon float 1
LOOKUP_TABLE default
0
0
0
0
0
0
0
0
0
0
0
0
0
0
0
0
0
0
0
0
0
0
0
0
0
0
0
0
0
0
0
0
0
0
0
0
0
0
0
0
0
0
0
0
0
0
0
0
0
0
0
0
0
0
0
0
0
0
0
0
0
0
0
0
0
0
0
0
0
0
0
0
0
0.026511589
0.032620396
0.012274466
0.035852648
0.021183349
0.02608384
0
0
0.018389285
0.017599216
0.020256521
0.027959628
0.02933543
0.023842508
0
0
0.016027363
0.036850449
0.021045666
0.031312224
0.045651328
0.027562924
0
0
0.020714514
0.030854277
0.024568751
0.034060836
0.027757321
0.022672188
0
0
0.020862773
0.036520962
0.030136338
0.037725437
0.028970821
0.027353801
0
0
0.018798416
0.019931622
0.0197089
0.031947013
0.026993897
0.016257407
0
0
0
0
0
0
0
0
0
0
0
0
0
0
0
0
0
0
0.029193934
0.018344579
0.035782408
0.03567801
0.025585921
0.023522103
0
0
0.020918028
0.034215923
0.034910247
0.030694911
0.031954858
0.030379379
0
0
0.027372392
0.040410329
0.038553033
0.034906663
0.029382076
0.030925468
0
0
0.025889268
0.035717547
0.040294692
0.035340071
0.044629522
0.029103808
0
0
0.029405601
0.03757624
0.035873774
0.033178546
0.035800617
0.025843021
0
0
0.023536671
0.036342435
0.03643062
0.03199295
0.035334636
0.0265735
0
0
0
0
0
0
0
0
0
0
0
0
0
0
0
0
0
0
0.025820617
0.029739549
0.04046575
0.035012018
0.026294349
0.024826834
0
0
0.021447809
0.030016743
0.040441245
0.036618587
0.034917861
0.024654455
0
0
0.028213121
0.034883566
0.056883473
0.046031561
0.045154899
0.032060817
0
0
0.022481395
0.035754468
0.050196145
0.040605046
0.054283418
0.026850956
0
0
0.033822171
0.03490917
0.04264646
0.039458536
0.026761569
0.025382701
0
0
0.026743565
0.037231158
0.055951647
0.04522007
0.023398641
0.017433675
0
0
0
0
0
0
0
0
0
0
0
0
0
0
0
0
0
0
0.030446883
0.025714736
0.024931967
0.03426221
0.026356721
0.037557185
0
0
0.032310598
0.033239253
0.048162021
0.041352384
0.043569591
0.031866387
0
0
0.017133605
0.032321148
0.04917616
0.039893981
0.045923263
0.032873765
0
0
0.034592386
0.036873218
0.050223049
0.065785505
0.038613841
0.030418433
0
0
0.039053541
0.045518842
0
0
0.036705505
0.032710727
0
0
0.032832317
0.032185603
0.044121943
0.020403221
0.030213598
0.01570398
0
0
0
0
0
0
0
0
0
0
0
0
0
0
0
0
0
0
0.020188257
0.029410444
0.02856165
0.027099526
0.03357422
0.019307774
0
0
0.021970997
0.044118535
0.039846804
0.041437995
0.039653674
0.026485542
0
0
0.036342904
0.035904065
0.052812405
0.052065104
0.037950847
0.033358779
0
0
0.02538457
0.04735864
0.048557162
0.039826665
0.040478632
0.039991789
0
0
0.038019098
0.040521357
0.045658134
0.04100972
0.039497688
0.027210804
0
0
0.021746265
0
0.029803965
0.031696737
0.019743135
0.013929211
0
0
0
0
0
0
0
0
0
0
0
0
0
0
0
0
0
0
0.019338185
0.026289083
0.024424726
0.032127388
0.02060746
0.02095383
0
0
0.021613544
0.029367797
0.034295205
0.025160408
0.035070974
0.023570519
0
0
0.025670184
0.029616488
0.038067143
0.036914181
0.031265188
0.032531369
0
0
0.022753878
0.032740761
0.047109444
0.034555648
0.023590392
0.015486149
0
0
0.021940636
0.031559668
0.020045547
0.033344835
0.030486068
0.01463021
0
0
0.016427202
0.02296897
0.028055446
0.013745565
0.015679508
0.0154141
0
0
0
0
0
0
0
0
0
0
0
0
0
0
0
0
0
0
0
0
0
0
0
0
0
0
0
0
0
0
0
0
0
0
0
0
0
0
0
0
0
0
0
0
0
0
0
0
0
0
0
0
0
0
0
0
0
0
0
0
0
0
0
0
0
0
0
0
0
0
0
0
0
SCALARS std_error_epsilon_half float 1
LOOKUP_TABLE default
0
0
0
0
0
0
0
0
0
0
0
0
0
0
0
0
0
0
0
0
0
0
0
0
0
0
0
0
0
0
0
0
0
0
0
0
0
0
0
0
0
0
0
0
0
0
0
0
0
0
0
0
0
0
0
0
0
0
0
0
0
0
0
0
0
0
0
0
0
0
0
0
0
0.027460363
0.032425199
0.018570915
0.021679157
0.02234347
0.023736948
0
0
0.029830089
0.026388818
0.037560917
0.029129853
0.024965758
0.017388565
0
0
0.018825008
0.03324898
0.029801957
0.031720623
0.035137083
0.024056092
0
0
0.025193164
0.026978968
0.026497142
0.044171594
0.029062152
0.026879834
0
0
0.01919893
0.028949721
0.029327789
0.0221889
0.029203886
0.033394739
0
0
0.022009537
0.024029646
0.020570351
0.020893337
0.024731042
0.016001793
0
0
0
0
0
0
0
0
0
0
0
0
0
0
0
0
0
0
0.024453573
0.021824319
0.026800608
0.024813887
0.025031677
0.028865129
0
0
0.025523987
0.030658426
0.043702308
0.044294648
0.033462316
0.03185495
0
0
0.029711762
0.024823494
0.043492764
0.040769637
0.0396806
0.032813296
0
0
0.026838733
0.029855801
0.039556239
0.045409676
0.040739782
0.026839755
0
0
0.032340638
0.041047458
0.03798911
0.041996073
0.021223314
0.022252206
0
0
0.026816564
0.032704994
0.043166269
0.022784019
0.031124886
0.025003441
0
0
0
0
0
0
0
0
0
0
0
0
0
0
0
0
0
0
0.030951697
0.02530762
0.031885453
0.036450509
0.029695759
0.021413352
0
0
0.030551864
0.034356084
0.04348781
0.038724948
0.037935738
0.031478573
0
0
0.022012454
0.033783037
0.04930836
0.054487452
0.037203234
0.04158178
0
0
0.026231168
0.036013812
0.045620143
0.049060084
0.045589086
0.032752898
0
0
0.02892956
0.032913107
0.036541048
0.052000284
0.044598192
0.033705082
0
0
0.028184108
0.026185336
0.042603385
0.030188074
0.042549655
0.016283471
0
0
0
0
0
0
0
0
0
0
0
0
0
0
0
0
0
0
0.023108365
0.023439838
0.02645842
0.031334698
0.032634426
0.026145468
0
0
0.038973313
0.037104025
0.037293285
0.036215015
0.036896124
0.032233451
0
0
0.020325944
0.047921501
0.046061963
0.040611587
0.042804521
0.028363476
0
0
0.020582434
0.042759027
0.047118474
0.044364892
0.041742168
0.0260041
0
0
0.035288617
0.044164423
0
0
0.03391647
0.029746747
0
0
0.028555125
0.025724808
0.027461303
0.025943123
0.034880765
0.01842632
0
0
0
0
0
0
0
0
0
0
0
0
0
0
0
0
0
0
0.020605283
0.027770147
0.029437114
0.028132016
0.036993336
0.023880817
0
0
0.027087541
0.036175936
0.036213577
0.039174404
0.038241714
0.022769604
0
0
0.032034412
0.039717507
0.039054386
0.040152736
0.048461121
0.02794126
0
0
0.035058539
0.042485226
0.046970636
0.04234222
0.03923269
0.034478847
0
0
0.032226853
0.037750334
0.042265821
0.043861933
0.024534397
0.011862025
0
0
0.021292543
0
0.032970164
0.031191412
0.01610294
0.014404956
0
0
0
0
0
0
0
0
0
0
0
0
0
0
0
0
0
0
0.019687869
0.023459688
0.023583647
0.028946098
0.022971826
0.023220297
0
0
0.017555544
0.024925627
0.03268658
0.026748022
0.025289616
0.02592288
0
0
0.027816327
0.024505256
0.031832863
0.042697169
0.037518352
0.026514439
0
0
0.021864513
0.028818261
0.034289826
0.030048724
0.024679458
0.01463985
0
0
0.023994055
0.025179932
0.033765566
0.026685854
0.028499106
0.013512596
0
0
0.014759519
0.037157863
0.017455408
0.016751135
0.014184021
0.021702848
0
0
0
0
0
0
0
0
0
0
0
0
0
0
0
0
0
0
0
0
0
0
0
0
0
0
0
0
0
0
0
0
0
0
0
0
0
0
0
0
0
0
0
0
0
0
0
0
0
0
0
0
0
0
0
0
0
0
0
0
0
0
0
0
0
0
0
0
0
0
0
0
0
SCALARS mean_steps_epsilon float 1
LOOKUP_TABLE default
1
1
1
1
1
1
1
1
1
1
1
1
1
1
1
1
1
1
1
1
1
1
1
1
1
1
1
1
1
1
1
1
1
1
1
1
1
1
1
1
1
1
1
1
1
1
1
1
1
1
1
1
1
1
1
1
1
1
1
1
1
1
1
1
1
1
1
1
1
1
1
1
1
12.34375
15
14.59375
16.9375
12.375
15.5
1
1
15.34375
19.84375
17.0625
14.875
14.03125
12.625
1
1
14.34375
19.09375
20.28125
15.75
21.125
15.65625
1
1
19.25
21
21.4375
22.75
15.8125
13.9375
1
1
14.25
21.375
18.28125
17.75
17.03125
15.0625
1
1
15.40625
15.375
13.28125
18.03125
19.1875
12.25
1
1
1
1
1
1
1
1
1
1
1
1
1
1
1
1
1
1
15.15625
16.03125
15.84375
15.15625
16.71875
14.375
1
1
15
15.5
17.90625
15.71875
14.3125
15.28125
1
1
17.03125
20.625
23.53125
21.65625
16.9375
18.875
1
0
17.84375
18.09375
28.03125
19.90625
22.125
18.09375
1
1
22.03125
22.65625
23.65625
24.6875
21.53125
15.21875
1
1
18.90625
17.0625
19.96875
19.875
21.84375
17.59375
1
1
1
1
1
1
1
1
1
1
1
1
1
1
1
1
1
1
13.96875
15.46875
19.46875
15.84375
17.90625
14.5625
1
1
16.96875
19.75
18.15625
19.6875
17.5
13.875
1
1
20.3125
33.46875
36.84375
28.375
21.1875
16.09375
1
1
19.28125
26.59375
33.8125
34.46875
25.9375
20.96875
1
1
18.71875
29.40625
30.59375
27.625
26.53125
18.0625
1
1
16.0625
23.28125
33.46875
26.6875
20.375
14.9375
1
1
1
1
1
1
1
1
1
1
1
1
1
1
1
1
1
1
12
16.34375
14.125
14.71875
16.5625
18.0625
1
1
20.65625
21.1875
28.40625
18.0625
20.6875
13.21875
1
1
17.28125
23.375
22.84375
22.9375
21.75
15.28125
1
1
24.78125
28.34375
29.75
33.75
27.15625
18.90625
1
1
19.125
31.46875
0
0
25
18.84375
1
1
19.09375
21.125
29.1875
21.875
20.03125
15.59375
1
1
1
1
1
1
1
1
1
1
1
1
1
1
1
1
1
1
15.0625
17.1875
14.5
13.375
18.21875
13.75
1
1
15.96875
15.625
16.90625
15.34375
22.5625
16.625
1
1
21.5625
23.34375
25.75
22.46875
21.8125
20.21875
1
1
19.28125
24.09375
26.875
27.75
23.59375
24.1875
1
1
19.59375
25.96875
23.09375
25.46875
20.09375
20.78125
1
1
16.625
0
23.5625
18.34375
17.9375
17.40625
1
1
1
1
1
1
1
1
1
1
1
1
1
1
1
1
1
1
11.5
16.15625
13.90625
17.96875
11.65625
13.875
1
1
12.875
14.15625
17.21875
17.21875
16.46875
13.75
1
1
12.75
16.21875
20.65625
17.09375
14.34375
15.9375
1
1
15.625
15.9375
20.96875
18.53125
18.15625
16.71875
1
1
15.375
16.59375
15.625
22.125
18.03125
11.96875
1
1
13.125
12.46875
16.6875
12.90625
17.46875
13.28125
1
1
1
1
1
1
1
1
1
1
1
1
1
1
1
1
1
1
1
1
1
1
1
1
1
1
1
1
1
1
1
1
1
1
1
1
1
1
1
1
1
1
1
1
1
1
1
1
1
1
1
1
1
1
1
1
1
1
1
1
1
1
1
1
1
1
1
1
1
1
1
1
1
SCALARS mean_steps_epsilon_half float 1
LOOKUP_TABLE default
1
1
1
1
1
1
1
1
1
1
1
1
1
1
1
1
1
1
1
1
1
1
1
1
1
1
1
1
1
1
1
1
1
1
1
1
1
1
1
1
1
1
1
1
1
1
1
1
1
1
1
1
1
1
1
1
1
1
1
1
1
1
1
1
1
1
1
1
1
1
1
1
1
16.25
20.71875
16
17.875
17.78125
16.0625
1
1
16.4375
22.6875
23.0625
17.53125
15.9375
16.34375
1
1
17
24.34375
21.5
18.25
22.25
19.875
1
1
17.4375
17.90625
21.03125
26.5625
17.125
18.90625
1
1
19.65625
24.6875
24.40625
27.53125
17.03125
20.65625
1
1
14.71875
17.8125
17.5625
18.875
18.1875
15.5
1
1
1
1
1
1
1
1
1
1
1
1
1
1
1
1
1
1
14.9375
17.8125
20.40625
18.59375
17.90625
21.71875
1
1
17.875
19.125
22.8125
28.5
26.34375
15.84375
1
1
20.4375
21.4375
33.03125
25.3125
22.46875
20.59375
1
0
19.59375
27.875
29.125
27.1875
31.1875
21.40625
1
1
33.46875
37.0625
37.03125
28.65625
29.6875
20.5
1
1
26.875
19.03125
31.8125
22.59375
25.09375
16.40625
1
1
1
1
1
1
1
1
1
1
1
1
1
1
1
1
1
1
16.84375
18.53125
21.03125
18.4375
16.25
14.5625
1
1
22.75
20.53125
25.4375
20.28125
24.71875
22
1
1
22.4375
34.40625
37.53125
31.9375
24.25
25.46875
1
1
27.59375
44.25
59.875
43.15625
29.625
26.375
1
1
20.96875
39.03125
58.9375
48.25
25
22.4375
1
1
20.15625
35.53125
46.78125
30.28125
30.90625
18.75
1
1
1
1
1
1
1
1
1
1
1
1
1
1
1
1
1
1
13.21875
19.8125
17.125
17.625
25.375
24.6875
1
1
22.53125
16.84375
29
19.90625
22.125
18.25
1
1
25
29.25
28.84375
26.4375
24.75
18.875
1
1
25.53125
37.28125
44.125
40.1875
29.4375
24.1875
1
1
32.90625
47.21875
0
0
32.21875
23.15625
1
1
22.875
28.53125
38.5
29.90625
28.9375
16.78125
1
1
1
1
1
1
1
1
1
1
1
1
1
1
1
1
1
1
18.6875
21.96875
19.03125
15.78125
23.625
15.21875
1
1
17.53125
26.71875
18.21875
27.375
20.8125
16.625
1
1
23.03125
27.28125
27.3125
30
28.84375
24.625
1
1
26.9375
31.9375
36.125
36.125
28.34375
19.71875
1
1
22.59375
33.0625
32.46875
37.40625
25.9375
18.65625
1
1
24.15625
0
40.28125
26.71875
24.78125
16.78125
1
1
1
1
1
1
1
1
1
1
1
1
1
1
1
1
1
1
12.9375
20.59375
17.53125
23.625
16.0625
15.1875
1
1
15.125
17.46875
20.28125
17.53125
22.65625
14.6875
1
1
17.65625
22.75
21.75
22.6875
18.75
16.53125
1
1
19.53125
19.875
22.59375
25.53125
18.5625
18.375
1
1
16.84375
29.75
26.0625
25.65625
20.5
17.875
1
1
12.59375
25.0625
17.75
15.75
23.3125
15.5625
1
1
1
1
1
1
1
1
1
1
1
1
1
1
1
1
1
1
1
1
1
1
1
1
1
1
1
1
1
1
1
1
1
1
1
1
1
1
1
1
1
1
1
1
1
1
1
1
1
1
1
1
1
1
1
1
1
1
1
1
1
1
1
1
1
1
1
1
1
1
1
1
1
SCALARS exact float 1
LOOKUP_TABLE default
-0.65999997
-0.59714282
-0.53428566
-0.47142857
-0.40857142
-0.34571427
-0.28285715
-0.22
-0.59714282
-0.53428566
-0.47142854
-0.40857142
-0.34571427
-0.28285712
-0.22
-0.15714285
-0.53428566
-0.47142854
-0.40857142
-0.34571427
-0.28285712
-0.21999998
-0.15714286
-0.094285712
-0.47142857
-0.40857142
-0.34571427
-0.28285715
-0.22
-0.15714285
-0.094285727
-0.031428576
-0.40857142
-0.34571427
-0.28285712
-0.22
-0.15714285
-0.094285697
-0.031428576
0.031428576
-0.34571427
-0.28285712
-0.21999998
-0.15714285
-0.094285697
-0.031428546
0.031428576
0.094285727
-0.28285715
-0.22
-0.15714286
-0.094285727
-0.031428576
0.031428576
0.094285697
0.15714285
-0.22
-0.15714285
-0.094285712
-0.031428576