# vtk DataFile Version 3.0
WoSt boundary bias detector
ASCII
DATASET STRUCTURED_POINTS
DIMENSIONS 16 16 16
ORIGIN -0.22 -0.22 -0.22
SPACING 0.029333333 0.029333333 0.029333333
POINT_DATA 4096
SCALARS solution_epsilon float 1
LOOKUP_TABLE default
-0.65999997
-0.63066661
-0.60133338
-0.57200003
-0.54266667
-0.51333332
-0.484
-0.45466667
-0.42533332
-0.396
-0.36666667
-0.33733335
-0.308
-0.27866668
-0.24933335
-0.22
-0.63066661
-0.60133332
-0.57200003
-0.54266667
-0.51333332
-0.484
-0.45466667
-0.42533332
-0.396
-0.36666667
-0.33733332
-0.30800003
-0.27866668
-0.24933334
-0.22000001
-0.19066666
-0.60133338
-0.57200003
-0.54266667
-0.51333332
-0.484
-0.45466667
-0.42533332
-0.39600003
-0.36666667
-0.33733332
-0.30800003
-0.27866668
-0.24933334
-0.22000001
-0.19066669
-0.16133334
-0.57200003
-0.54266667
-0.51333332
-0.484
-0.45466667
-0.42533332
-0.396
-0.36666667
-0.33733332
-0.308
-0.27866668
-0.24933335
-0.22
-0.19066668
-0.16133335
-0.132
-0.54266667
-0.51333332
-0.484
-0.45466667
-0.42533332
-0.396
-0.36666667
-0.33733335
-0.308
-0.27866668
-0.24933335
-0.22000003
-0.19066668
-0.16133335
-0.13200003
-0.10266667
-0.51333332
-0.484
nan
-0.42533332
-0.396
-0.36666667
-0.33733332
-0.30800003
-0.27866668
-0.24933334
-0.22000001
-0.19066669
-0.16133334
-0.13200001
-0.10266669
-0.073333338
-0.484
-0.45466667
-0.42533332
-0.396
-0.36666667
-0.33733332
-0.308
-0.27866668
-0.24933334
-0.22
-0.19066668
-0.16133335
-0.132
-0.10266668
-0.073333353
-0.044
-0.45466667
-0.42533332
-0.39600003
-0.36666667
-0.33733335
-0.30800003
-0.27866668
-0.24933335
-0.22000001
-0.19066668
-0.16133335
-0.13200003
-0.10266668
-0.073333353
-0.04400003
-0.014666677
-0.42533332
-0.396
-0.36666667
-0.33733332
-0.308
-0.27866668
-0.24933334
-0.22000001
-0.19066668
-0.16133334
-0.13200001
-0.10266669
-0.073333338
-0.044000015
-0.014666691
0.014666662
-0.396
-0.36666667
-0.33733332
-0.308
-0.27866668
-0.24933334
-0.22
-0.19066668
-0.16133334
-0.132
-0.10266668
-0.073333353
-0.044
-0.014666677
0.014666647
0.044
-0.36666667
-0.33733332
-0.30800003
-0.27866668
-0.24933335
-0.22000001
-0.19066668
-0.16133335
-0.13200001
-0.10266668
-0.073333353
-0.04400003
-0.014666677
0.014666647
0.04399997
0.073333323
-0.33733335
-0.30800003
-0.27866668
-0.24933335
-0.22000003
-0.19066669
-0.16133335
-0.13200003
-0.10266669
-0.073333353
-0.04400003
-0.014666706
0.014666647
0.04399997
0.073333293
0.10266665
-0.308
-0.27866668
-0.24933334
-0.22
-0.19066668
-0.16133334
-0.132
-0.10266668
-0.073333338
-0.044
-0.014666677
0.014666647
0.044
0.073333323
0.10266665
0.132
-0.27866668
-0.24933334
-0.22000001
-0.19066668
-0.16133335
-0.13200001
-0.10266668
-0.073333353
-0.044000015
-0.014666677
0.014666647
0.04399997
0.073333323
0.10266665
0.13199997
0.16133332
-0.24933335
-0.22000001
-0.19066669
-0.16133335
-0.13200003
-0.10266669
-0.073333353
-0.04400003
-0.014666691
0.014666647
0.04399997
0.073333293
0.10266665
0.13199997
0.16133329
0.19066665
-0.22
-0.19066666
-0.16133334
-0.132
-0.10266667
-0.073333338
-0.044
-0.014666677
0.014666662
0.044
0.073333323
0.10266665
0.132
0.16133332
0.19066665
0.22
-0.63066667
-0.60133332
-0.57200003
-0.54266667
-0.51333332
-0.48400003
-0.45466667
-0.42533332
-0.396
-0.36666667
-0.33733332
-0.30800003
-0.27866668
-0.24933334
-0.22000001
-0.19066666
-0.60133332
-0.56999767
-0.54510224
-0.51522589
-0.47132272
-0.45519471
-0.42306772
-0.40063837
-0.38057965
-0.35331953
-0.30354011
-0.27610296
-0.25648782
-0.22477183
-0.19439587
-0.16133332
-0.57200003
-0.55054986
-0.51893222
-0.4872531
-0.45785671
-0.43351254
-0.38440588
-0.3777737
-0.34420675
-0.30395773
-0.29003471
-0.24963856
-0.21958625
-0.18594101
-0.15715554
-0.132
-0.54266667
-0.51304692
-0.48133761
-0.47376728
-0.41076946
-0.40118352
-0.36885971
-0.34942573
-0.31482878
-0.27241588
-0.24058144
-0.22634228
-0.20120716
-0.16924144
-0.12597637
-0.10266666
-0.51333332
-0.48712987
-0.45508808
-0.41962603
-0.3907758
-0.36302179
-0.34193879
-0.3001596
-0.26578727
-0.23235071
-0.22417913
-0.19705105
-0.168532
-0.13414939
-0.10260516
-0.07333333
-0.48400003
-0.47086903
-0.43124482
-0.38361949
-0.38019451
-0.34989327
-0.3055864
-0.29704624
-0.24735783
-0.21325913
-0.19045638
-0.16238008
-0.14006558
-0.10677548
-0.070389643
-0.044
-0.45466667
-0.42185932
-0.3936137
-0.3534219
-0.33837613
-0.30723912
-0.28902972
-0.25134724
-0.22284755
-0.18189861
-0.16044828
-0.14086844
-0.099895045
-0.067757986
-0.055874191
-0.014666662
-0.42533332
-0.39523447
-0.36679915
-0.34383318
-0.31098145
-0.26985776
-0.25683033
-0.20094703
-0.1996685
-0.17389661
-0.13239054
-0.092635229
nan
-0.051125351
-0.013710419
0.014666662
-0.396
-0.37488621
-0.33931291
-0.30461258
-0.27353868
-0.24738908
-0.23041612
-0.2027593
-0.15728499
-0.14786819
-0.098036043
-0.087053411
-0.060759164
-0.0040998897
0.020728115
0.044
-0.36666667
-0.33394802
-0.31844023
-0.28496215
-0.26081631
-0.2353738
-0.18541884
-0.17528462
-0.12758006
-0.074978761
-0.064760581
-0.029397026
-0.0043396638
0.015182338
0.049504463
0.073333338
-0.33733332
-0.29941103
-0.28545853
-0.26770669
-0.22102667
-0.20088322
-0.16515057
-0.12749898
-0.11696105
-0.094640054
-0.037438154
-0.025403002
0.015149473
0.030615872
0.079635687
0.10266666
-0.30800003
-0.27946523
-0.25463483
-0.22363888
-0.18526597
-0.17069925
-0.1441142
-0.11197052
-0.086238079
-0.038895346
-0.015264802
nan
0.04108135
0.067546703
0.11302115
0.13199998
-0.27866668
-0.24925795
-0.23163438
-0.20125121
-0.15721379
-0.12163757
-0.078998439
-0.083936922
-0.046243168
-0.0067050029
0.011105936
0.043187298
0.061040506
0.11780404
0.11804955
0.16133334
-0.24933334
-0.20611298
-0.18791042
-0.15833959
-0.13480026
-0.085514292
-0.08211863
-0.050050169
-0.0068324036
0.0093879718
0.038412772
0.055593628
0.11929873
0.12277644
0.15620054
0.19066666
-0.22000001
-0.19833975
-0.1561313
-0.14597529
-0.10575034
-0.08822155
-0.038649127
-0.017452281
0.016376445
0.045716435
0.074171007
0.1094141
0.13738455
0.15728487
0.19120191
0.21999998
-0.19066666
-0.16133332
-0.132
-0.10266666
-0.07333333
-0.044
-0.014666662
0.014666662
0.044
0.073333338
0.10266666
0.13199998
0.16133334
0.19066666
0.21999998
0.24933334
-0.60133332
-0.57199997
-0.54266667
-0.51333332
-0.48400003
-0.45466667
-0.42533332
-0.39600003
-0.36666667
-0.33733332
-0.30800003
-0.27866668
-0.24933334
-0.22000001
-0.19066669
-0.16133334
-0.57199997
-0.53843039
-0.5116452
-0.49298981
-0.45554546
-0.42213023
-0.39082596
-0.36311141
-0.3361294
-0.31458488
-0.28553963
-0.24709703
-0.22013216
-0.19525439
-0.15812685
-0.132
-0.54266667
-0.50294703
-0.48238757
-0.47208056
-0.4181138
-0.40447786
-0.34964547
-0.34054413
-0.29323685
-0.2670196
-0.2415179
-0.19830321
-0.18745314
-0.15767281
-0.13376258
-0.10266668
-0.51333332
-0.49132782
-0.44548634
-0.43065414
-0.37900844
-0.38965532
-0.34769949
-0.2986801
-0.27197117
-0.25499469
-0.23202384
-0.2044414
-0.20179111
-0.13195799
-0.10656239
-0.073333338
-0.48400003
-0.4459385
-0.44460306
-0.40628585
-0.35303882
-0.33478129
-0.30914727
-0.26203886
-0.2397631
-0.22612098
-0.18163414
-0.18124458
-0.11659992
-0.1012222
-0.074284516
-0.044000007
-0.45466667
-0.41870904
-0.39531621
-0.36718726
-0.34907997
-0.32416844
-0.30419064
-0.22763559
-0.22348042
-0.21647376
-0.1696756
-0.15134497
-0.090982556
-0.089543499
-0.041699253
-0.014666677
-0.42533332
-0.4196763
-0.37770543
-0.34208697
-0.33255386
-0.28315088
-0.24496451
-0.21944669
-0.18575615
-0.14882594
-0.11825368
-0.084662035
-0.077725329
-0.06098862
0.00097912364
0.014666662
-0.39600003
-0.36307067
-0.34697363
-0.29687431
-0.28135243
-0.25078157
-0.21052636
-0.20890325
-0.1593771
-0.15056807
-0.10436646
-0.085327394
-0.03728674
-0.030070662
0.019707449
0.043999985
-0.36666667
-0.33882174
-0.31204042
-0.2802515
-0.23547353
-0.22555561
-0.1862005
-0.16771118
-0.13757211
-0.11293291
-0.081257306
-0.059347186
-0.024282852
0.0069112154
0.04507513
0.073333323
-0.33733332
nan
-0.27813664
-0.231685
-0.24927235
-0.18860725
-0.14549118
-0.16365159
-0.090429299
-0.097101808
-0.055653498
-0.0057348842
0.033554696
0.030410912
0.066005878
0.10266666
nan
-0.27539966
-0.26688308
-0.22600392
-0.1830993
-0.14922808
-0.13620085
-0.1137535
-0.081874751
-0.039315823
-0.017636897
-0.0044702822
0.051478859
0.069513276
0.095121674
0.13199998
-0.27866668
-0.2436742
-0.21302605
-0.17601615
-0.16248092
-0.12737852
-0.094006509
-0.07334955
-0.040553752
-0.022706561
0.016318094
0.028723029
0.094953164
0.093097247
0.1303288
0.16133331
-0.24933334
-0.22854495
-0.19150145
-0.14576651
-0.15161204
-0.084005117
-0.073684588
-0.056275755
-0.0066044969
0.014459846
0.034437899
0.057500195
0.10498042
0.13805507
0.16187222
0.19066666
-0.22000001
-0.19461262
-0.1683093
-0.13064036
-0.098373458
-0.065646552
-0.055931199
-0.03612072
-0.0017749346
0.036529493
0.081326149
0.095858507
0.14558928
0.15189897
0.20054497
0.21999998
-0.19066669
-0.1728045
-0.12960902
nan
-0.078421026
-0.036739565
-0.01465245
0.0072354265
0.041863069
0.049094219
0.11195246
0.13674
0.16352476
0.17519455
0.22066335
0.24933331
-0.16133334
-0.132
-0.10266668
-0.073333338
-0.044000007
-0.014666677
0.014666662
0.043999985
0.073333323
0.10266666
0.13199998
0.16133331
0.19066666
0.21999998
0.24933331
0.27866668
-0.57200003
-0.54266667
-0.51333332
-0.484
-0.45466667
-0.42533335
-0.396
-0.36666667
-0.33733332
-0.308
-0.27866668
-0.24933335
-0.22
-0.19066668
-0.16133335
-0.132
-0.54266667
-0.51114845
-0.48563436
-0.44695836
-0.42482772
-0.38622499
-0.3844378
-0.34795797
-0.30107677
-0.29574868
-0.24875996
-0.22568028
-0.18942975
-0.15424204
-0.125034
-0.10266666
-0.51333332
-0.49008536
-0.46563706
-0.41390613
-0.4006227
-0.38249615
-0.33591118
-0.28053015
-0.25997856
-0.24060142
-0.19056091
-0.18143961
-0.1725461
-0.11033901
-0.10680318
-0.073333338
-0.484
-0.43967867
-0.43440294
-0.39191744
-0.37334111
-0.33775789
-0.30800027
-0.25848681
-0.25365224
-0.21986449
-0.19243
-0.16677736
-0.1346412
-0.10816767
-0.073318914
-0.044
-0.45466667
-0.4101164
-0.39063588
-0.36701459
-0.33757073
-0.32477444
-0.25728896
-0.24749199
-0.22856879
-0.18161218
-0.17229164
-0.14335245
-0.0856179
-0.054568369
-0.045273576
-0.014666669
-0.42533335
-0.37898314
-0.37320152
-0.34672093
-0.32674617
-0.27145663
-0.26997334
-0.20548743
-0.18244354
-0.19126858
-0.14678647
-0.10170516
-0.071144216
-0.035527751
-0.010030737
0.014666662
-0.396
-0.3731232
-0.34604004
-0.29164746
-0.30712631
-0.26532295
-0.23709914
-0.2122654
-0.16644381
-0.12689763
-0.070152834
-0.091862656
-0.027233021
-0.029127274
0.033102874
0.044
-0.36666667
-0.33706549
-0.30812201
-0.28787595
-0.2343991
-0.23309936
-0.17527857
-0.1718061
-0.16041724
-0.08088237
-0.087706879
-0.050851732
-0.034293484
0.019360265
0.051223136
0.073333323
-0.33733332
-0.30548435
-0.28359193
-0.24629122
-0.23649955
-0.18369663
-0.16341525
-0.1381266
-0.093131542
-0.065657191
-0.045383118
-0.013421941
-0.019775227
0.047089145
0.061711941
0.10266666
-0.308
-0.29122111
-0.24491248
-0.23111886
-0.20570612
-0.16930161
-0.1524664
-0.10113748
-0.072587132
-0.046704512
0.012963212
0.045718193
0.050523683
0.076829247
0.1003518
0.132
-0.27866668
-0.23456089
-0.22938475
-0.19160987
-0.1870489
-0.12849799
-0.083085127
nan
-0.052245751
-0.026593858
0.018693075
0.079243422
0.071846023
0.090813763
0.15833646
0.16133332
-0.24933335
-0.23183072
-0.18585345
-0.1606344
-0.12611938
-0.092960082
-0.080000132
-0.027939718
-0.032789819
0.033216152
0.04498418
0.070630141
0.089847334
0.12907438
0.17064844
0.19066665
-0.22
-0.19835237
-0.17715684
-0.1269388
-0.093336411
-0.093413629
-0.036363211
0.0086330902
0.033897322
0.040971134
0.087352417
0.084434763
0.13334769
0.16365558
0.18253046
0.22
-0.19066668
-0.15453157
-0.13303539
-0.10189764
-0.057997134
-0.038197257
-0.033107135
-0.0030523287
0.066202886
0.077895418
0.084196262
0.11754084
0.15961351
0.1937571
0.21430433
0.24933332
-0.16133335
-0.13257949
-0.089651287
-0.069170617
-0.042781591
-0.016288256
0.02492252
0.040223561
0.090407088
0.10214953
0.12739456
0.16393791
0.1904842
0.19487727
0.26618484
0.27866665
-0.132
-0.10266666
-0.073333338
-0.044
-0.014666669
0.014666662
0.044
0.073333323
0.10266666
0.132
0.16133332
0.19066665
0.22
0.24933332
0.27866665
0.308
-0.54266667
-0.51333332
-0.48400003
-0.45466667
-0.42533335
-0.39600003
-0.36666667
-0.33733335
-0.308
-0.27866668
-0.24933335
-0.22000003
-0.19066668
-0.16133335
-0.13200003
-0.10266667
-0.51333332
-0.4846988
-0.44855219
-0.42501393
-0.39035529
-0.3764134
-0.3398577
-0.32945275
-0.27651098
-0.25618693
-0.23907669
-0.19713631
-0.17881429
-0.13892928
-0.094501749
-0.07333333
-0.48400003
-0.45904964
-0.4221015
-0.37867957
-0.38253865
-0.36118472
-0.32615596
-0.27047673
-0.27073154
-0.22150867
-0.16515845
-0.14997877
-0.12291034
-0.098515145
-0.06612429
-0.044000007
-0.45466667
-0.43733194
-0.41893464
-0.34757379
-0.34007663
-0.3204864
-0.29651034
-0.26359984
-0.22832997
-0.21158428
-0.18589599
-0.13317253
-0.097705521
-0.060514521
-0.040440723
-0.014666669
-0.42533335
-0.41134167
-0.34136185
-0.35003951
-0.31203195
-0.26710001
-0.2545374
-0.18250519
-0.18074262
-0.13346918
-0.12417977
-0.083766356
-0.096314102
-0.061769571
-0.019446926
0.014666662
-0.39600003
-0.35498634
-0.35676968
-0.31990826
-0.30668259
-0.23404266
-0.20296408
-0.17470393
-0.14491801
-0.13513893
-0.097846828
-0.095955148
-0.057112604
-0.021486735
0.017450396
0.043999992
-0.36666667
-0.33599293
-0.29072699
-0.30201849
-0.23350875
-0.19408379
-0.22058941
-0.16422705
-0.1597812
-0.11401595
-0.098887011
-0.05303039
-0.031033456
5.8833102e-05
0.045830663
0.07333333
-0.33733335
-0.31225526
-0.29336369
-0.25286987
-0.22434826
-0.21517287
-0.16164359
-0.094865598
-0.1222661
-0.11015794
-0.056848746
-0.0013787739
0.015090518
0.064158544
0.047966808
0.10266665
-0.308
-0.28471223
-0.25195283
-0.24675903
-0.17056836
-0.15763554
-0.11024822
-0.048305519
-0.082466237
-0.026369106
0.012197125
0.028409095
0.064661771
0.0756317
0.10484777
0.132
-0.27866668
-0.24623467
-0.21858564
-0.18787752
-0.15822761
-0.12634735
-0.11303264
-0.065090284
-0.049925592
-0.051261351
0.02595274
0.024283025
0.048981212
0.082404375
0.14337069
0.16133332
-0.24933335
-0.22409983
-0.19800043
-0.15148534
-0.13832872
-0.10966145
-0.084551312
-0.044840559
-0.024983972
-0.0063480739
0.033418659
0.04597969
0.10939916
0.14529528
0.16483912
0.19066665
-0.22000003
-0.19883925
-0.16507399
-0.13592105
-0.1174279
-0.068176344
-0.024589591
-0.017192394
0.037530679
0.039529044
0.053171962
0.13128278
0.11204316
0.13635731
0.19598649
0.21999997
-0.19066668
-0.16091399
-0.14037941
-0.10250413
-0.07650657
-0.016098974
-0.013516479
0.02613933
0.037625257
0.096745066
0.078905985
0.15611295
0.18100944
0.16456941
0.212943
0.24933332
-0.16133335
-0.13818263
-0.10325101
-0.087272584
-0.037676577
0.00094108016
0.0036786275
0.056894984
0.077551402
0.10288762
0.14754796
0.13500641
0.23500392
0.22083475
0.25413418
0.27866665
-0.13200003
-0.10325381
-0.082512081
-0.044461161
9.1310299e-05
0.027231351
0.053485151
0.079946838
0.11870365
0.13695914
0.15606883
0.18589364
0.22490562
0.25190759
nan
0.30799997
-0.10266667
-0.07333333
-0.044000007
-0.014666669
0.014666662
0.043999992
0.07333333
0.10266665
0.132
0.16133332
0.19066665
0.21999997
0.24933332
0.27866665
0.30799997
0.33733332
-0.51333332
-0.48399997
-0.45466667
-0.42533332
-0.39600003
-0.36666667
-0.33733332
-0.30800003
-0.27866668
-0.24933334
-0.22000001
-0.19066669
-0.16133334
-0.13200001
-0.10266669
-0.073333338
-0.48399997
-0.44647676
-0.42000741
-0.39053622
-0.36284584
-0.32285637
-0.30060512
-0.27857649
-0.2634365
-0.20708905
-0.20136909
-0.15859188
-0.13191245
-0.088095896
-0.091203883
-0.044
-0.45466667
-0.43038777
-0.39622432
-0.36201867
-0.3229416
-0.32759133
-0.29057741
-0.22295314
-0.22989783
-0.20805676
-0.15341881
-0.10924529
-0.09897811
-0.070216291
-0.039218053
-0.014666677
-0.42533332
-0.41152576
-0.37170058
-0.31255534
-0.29974183
-0.28940645
-0.29104403
-0.23311107
-0.21460482
-0.1529658
-0.13067359
-0.10873401
-0.055608846
-0.051462498
-0.020029375
nan
-0.39600003
-0.34868175
-0.34767145
-0.30020729
-0.29670388
-0.24264191
-0.22521281
-0.21437524
-0.16652611
-0.15101546
-0.081507206
-0.081532963
-0.047822181
-0.009594827
0.029611629
0.043999992
-0.36666667
-0.35174623
-0.2994279
-0.25189942
-0.27062592
-0.21553378
-0.20486443
-0.14516081
-0.13950825
-0.11347003
-0.078727461
-0.056023054
-0.028645372
0.033514373
0.046210367
0.073333323
-0.33733332
-0.33012196
-0.27969328
-0.24144839
-0.20837055
-0.21820727
-0.15402009
-0.13501142
-0.11914769
-0.079673178
-0.010422636
-0.0048993872
0.021740304
0.046336435
0.070843682
0.10266666
-0.30800003
-0.27735981
-0.24029702
-0.2028551
-0.18873656
-0.16656764
-0.12493287
-0.066732742
-0.060879096
-0.073141053
nan
0.017649353
0.045444284
0.10388656
0.098921344
0.13199998
-0.27866668
-0.25003314
-0.19258118
-0.18430108
-0.13326204
nan
-0.1124583
-0.060572863
-0.019643137
-0.037506547
0.01473333
0.070412509
0.088198535
0.11160429
0.14681676
0.16133332
-0.24933334
-0.23139401
-0.2052713
-0.16741543
-0.1118442
-0.094913885
-0.066137962
-0.05443351
-0.038113039
-0.0039112419
0.044610798
nan
0.10741226
0.15062346
0.14819553
0.19066666
-0.22000001
-0.19986525
-0.15636525
-0.12330022
-0.11967584
nan
-0.062659375
-0.044939846
0.022831721
0.054097626
nan
0.10423039
0.13246618
0.18225299
0.20581204
0.21999998
-0.19066669
-0.16882285
-0.15202761
-0.10283565
-0.086646877
-0.077586919
0.0089029763
0.0035508145
0.034589842
0.080385886
0.12060104
0.11707435
0.16139771
0.20282294
0.21074949
0.24933331
-0.16133334
-0.13722606
-0.11231781
-0.064273998
-0.057319932
-0.015605723
0.020998131
0.036735594
0.09763211
0.11557156
0.11071053
0.14931262
0.19254982
0.22295906
0.24882804
0.27866668
-0.13200001
-0.099202566
-0.056150891
-0.02725883
0.0011157448
0.031626336
0.060221456
0.053346768
0.10157429
0.12591875
0.15996841
0.19813932
0.23613718
0.25238833
0.27984589
0.30799997
-0.10266669
-0.067828394
-0.045538917
-0.017515514
0.019731766
0.048392575
0.068015024
0.12013303
0.12330236
0.15327893
0.18967713
0.22202185
0.25381485
0.26814598
0.31022954
0.33733332
-0.073333338
-0.044
-0.014666677
0.014666662
0.043999992
0.073333323
0.10266666
0.13199998
0.16133332
0.19066666
0.21999998
0.24933331
0.27866668
0.30799997
0.33733332
0.36666667
-0.484
-0.45466664
-0.42533335
-0.396
-0.36666667
-0.33733335
-0.308
-0.27866668
-0.24933334
-0.22
-0.19066668
-0.16133335
-0.132
-0.10266668
-0.073333353
-0.044
-0.45466664
-0.43094292
-0.38361394
-0.38543448
-0.35012347
-0.31999868
-0.27924901
-0.25193739
-0.23832798
-0.20160803
-0.13746685
-0.13587147
-0.091943443
-0.068138681
-0.049634233
-0.014666662
-0.42533335
-0.39632452
-0.35570455
-0.35164639
-0.27689692
-0.27168912
-0.26287985
-0.23054238
-0.20921119
-0.15514942
-0.13853157
-0.079131059
-0.083210975
-0.040052034
-0.01701064
0.014666662
-0.396
-0.37406501
-0.33138317
-0.31827927
-0.29680553
-0.24043827
-0.21891604
-0.21199621
-0.16504967
-0.12024348
-0.12882756
-0.077121794
-0.03564107
-0.0042602564
0.010337682
0.044
-0.36666667
-0.34972709
-0.31867546
-0.30167511
-0.25228211
-0.18539181
-0.19222939
-0.2022958
-0.1389239
-0.11591355
-0.070830718
-0.089994401
-0.054161314
-0.0030312981
0.038158916
0.07333333
-0.33733335
-0.29870483
-0.2872102
-0.22486117
-0.23128669
-0.17970063
-0.15981352
-0.13411446
-0.0767636
-0.067040049
-0.014843772
-0.035165682
-0.027927464
0.057562314
0.074137852
0.10266666
-0.308
-0.27970588
-0.25856683
-0.22837804
-0.1656224
-0.15854576
-0.12572466
-0.085403442
-0.076537967
-0.029050106
-0.046513736
0.012724455
0.045295496
0.092889294
0.10990627
0.132
-0.27866668
-0.24072206
-0.22166213
-0.16940482
-0.16974196
-0.13671996
-0.09642987
-0.096683234
-0.034657609
-0.011842433
0.034722332
0.030015228
0.025460573
0.12814529
0.13550875
0.16133332
-0.24933334
-0.23957843
-0.17871284
-0.16363415
-0.12118153
-0.12363705
-0.060094453
-0.031422213
0.00083238794
0.021995811
0.01971749
0.081265576
0.10688469
0.12022254
0.16497366
0.19066666
-0.22
-0.19186951
-0.15258305
-0.13711964
-0.083911031
-0.069684565
-0.043915834
-0.013497212
0.030182498
0.03163423
0.084246494
0.11113907
0.14269383
0.14592297
nan
0.22
-0.19066668
-0.16585767
-0.14372621
-0.10656516
nan
-0.017775109
0.01035319
0.017768467
0.058954939
0.080965161
0.11560226
0.14587925
0.19389167
0.20811027
0.22766025
0.24933332
-0.16133335
-0.13899302
-0.10959232
-0.048320681
-0.0065681743
-0.020019235
0.0015367609
0.047094285
nan
0.1238251
0.14210127
0.15099892
0.1775509
0.23285335
0.24911442
0.27866665
-0.132
-0.10417298
-0.060545359
-0.04214799
-0.016462287
0.012246227
nan
nan
0.082282916
0.12278529
0.1505115
0.19597466
0.2211446
0.24577542
0.27604392
0.308
-0.10266668
-0.078215629
-0.03819339
-0.013038078
0.011845098
0.04192264
nan
0.103186
0.12492055
0.17294534
0.18099506
0.2086283
0.23988768
0.26635715
0.31197953
0.33733332
-0.073333353
-0.043444462
-0.0058596563
0.011313692
0.040398765
0.075750552
0.11174085
0.12041605
0.16195047
0.18153717
0.21663362
0.25221887
0.26919907
0.30574811
0.34164381
0.36666664
-0.044
-0.014666662
0.014666662
0.044
0.07333333
0.10266666
0.132
0.16133332
0.19066666
0.22
0.24933332
0.27866665
0.308
0.33733332
0.36666664
0.396
-0.45466667
-0.42533332
-0.39600003
-0.36666667
-0.33733335
-0.30800003
-0.27866668
-0.24933335
-0.22000001
-0.19066668
-0.16133335
-0.13200003
-0.10266668
-0.073333353
-0.04400003
-0.014666677
-0.42533332
-0.40558073
-0.35894483
-0.33713716
-0.28989843
-0.29031327
-0.24119593
-0.22378796
-0.19360369
-0.16239433
-0.14977476
-0.082663141
-0.063046075
-0.050699398
-0.0095296483
0.014666662
-0.39600003
-0.35736275
-0.33226338
-0.30661556
-0.3053627
-0.24212882
-0.22691026
-0.19218907
-0.1708917
-0.11578613
-0.11133131
-0.066278234
-0.042836733
-0.028888881
0.024814669
0.043999985
-0.36666667
-0.33681321
-0.3191767
-0.28764671
-0.26029986
-0.21061024
-0.2123352
-0.16213508
-0.13675264
-0.082691118
-0.044904381
-0.061071474
-0.010207224
0.020566866
0.052026607
0.073333323
-0.33733335
-0.30514801
-0.28233927
-0.21580027
-0.23223004
-0.19088744
-0.19912124
-0.14673549
-0.10822687
-0.085403666
-0.03296224
-0.016994545
0.0088146776
0.054627366
0.073949605
0.10266665
-0.30800003
-0.28959307
-0.239337
nan
-0.17856358
-0.12805985
-0.094800189
-0.099071994
-0.072096758
-0.049861524
-0.014290217
-0.00059276453
0.00093044108
0.095678613
0.097512774
0.13199998
-0.27866668
-0.23296283
-0.24242748
-0.17740893
-0.17212225
-0.12553641
-0.10184475
-0.080887333
-0.027966252
-0.028987061
0.050245646
0.030579342
0.069361791
0.055540267
0.1123863
0.16133332
-0.24933335
-0.21147291
-0.16479985
-0.15265146
-0.12881541
-0.13541824
-0.04632102
-0.032394167
-0.011279305
0.03260681
0.031328272
0.071004681
0.10271063
0.12578863
0.15849701
0.19066665
-0.22000001
-0.1859287
-0.17075638
-0.12421436
-0.057435118
-0.083657816
-0.037536833
-0.01030614
0.02105353
0.017017579
0.067102872
0.10224581
0.11095951
0.13812776
0.20507696
0.21999998
-0.19066668
-0.17239787
-0.12864098
-0.076187834
-0.079925552
-0.032661613
-0.014664208
nan
nan
0.068029024
0.078918137
0.11646584
0.13850579
0.16967534
0.22402239
0.24933332
-0.16133335
-0.12700671
-0.10295096
-0.080624208
-0.058002461
-0.013156317
0.013086324
nan
0.073848397
0.11404791
0.13927399
0.18154594
0.20643264
0.24418215
0.28066275
0.27866665
-0.13200003
-0.098951139
-0.089974016
-0.050243661
-0.0038460775
0.0094604632
0.043865662
nan
nan
0.11120823
0.18925145
0.19029903
0.22354011
0.24972251
0.28248876
0.30799997
-0.10266668
-0.067006893
-0.053762898
0.0067083319
-0.0080524655
0.03935387
nan
0.10059895
0.12805472
0.16298009
0.2042447
0.208643
0.26408446
0.29131284
0.30499348
0.33733332
-0.073333353
-0.034949966
-0.02109883
0.0083365357
0.048180744
0.072620451
0.09951707
0.13269626
nan
0.17592801
0.19609955
0.27304709
0.28084692
0.28830251
0.32848704
0.36666664
-0.04400003
-0.017085755
0.018885614
0.031693298
0.06962122
0.10342187
0.1340535
0.16452034
0.19112538
0.22069351
0.26459208
0.27888128
0.31693575
0.3484135
0.3649154
0.39599997
-0.014666677
0.014666662
0.043999985
0.073333323
0.10266665
0.13199998
0.16133332
0.19066665
0.21999998
0.24933332
0.27866665
0.30799997
0.33733332
0.36666664
0.39599997
0.42533332
-0.42533332
-0.39599997
-0.36666667
-0.33733332
-0.30800003
-0.27866668
-0.24933334
-0.22000001
-0.19066668
-0.16133334
-0.13200001
-0.10266669
-0.073333338
-0.044000015
-0.014666691
0.014666662
-0.39599997
-0.35939142
-0.32601362
-0.31555369
-0.2743654
-0.25140631
-0.23682344
-0.18248789
-0.13612689
-0.14148568
-0.11330757
-0.075445138
-0.058955535
-0.012003894
0.0065480946
0.044
-0.36666667
-0.35658237
-0.31933817
-0.26942757
-0.26043239
-0.22975659
-0.19353537
-0.15353902
-0.12753443
-0.11020622
-0.10570316
-0.043980502
0.01347998
0.013156991
0.038361728
0.073333323
-0.33733332
-0.29859436
-0.28594255
-0.26199743
-0.22925061
-0.19448991
-0.15875798
-0.11939723
-0.13444586
-0.072344907
-0.026686508
-0.019493775
0.018135808
0.048502237
nan
0.10266666
-0.30800003
-0.26740256
-0.24425156
-0.25594744
-0.19475834
nan
-0.13117561
-0.1076054
-0.061907064
-0.048741132
0.015993081
0.020420102
0.045498852
0.06989342
0.076809406
0.132
-0.27866668
-0.26700196
-0.18392414
-0.2184457
-0.16779219
-0.10912821
-0.11842721
-0.061319761
-0.070747696
-0.0071534589
0.039099779
0.049813163
0.060010202
0.079733372
0.12254938
0.16133332
-0.24933334
-0.21837308
-0.17593563
-0.16977328
-0.11258276
-0.097267434
-0.043874469
-0.040737413
-0.02021273
0.0073365276
0.065329604
0.079520941
0.13111193
0.14617205
0.15832344
0.19066666
-0.22000001
-0.18929118
-0.17102818
-0.093369566
-0.11283051
-0.080122299
-0.026094189
-0.034646228
0.040066965
nan
0.066689417
0.092447378
0.12870595
0.18084678
0.19516104
0.21999998
-0.19066668
-0.16517654
-0.12109895
-0.11165138
-0.10339347
-0.024164196
-0.0097670071
nan
0.04588116
0.075274989
0.098287262
0.15444787
0.12462645
0.20128532
0.23519091
0.24933332
-0.16133334
-0.12779176
-0.073839329
-0.095484018
-0.047428645
-0.015235922
nan
0.043476637
nan
nan
0.13444018
0.17992707
0.18727414
0.22531027
0.23876196
0.27866668
-0.13200001
-0.10051253
-0.058385506
-0.051686246
-0.012566828
nan
nan
nan
nan
nan
0.16031136
nan
0.21236445
0.25684562
0.28133589
0.30799997
-0.10266669
-0.049438018
-0.051686589
-0.0058404603
0.009405504
nan
nan
nan
0.13105701
0.16026604
nan
0.2048175
0.24773705
0.29697406
0.30864677
0.33733332
-0.073333338
-0.046992354
-0.01821168
0.017777726
0.03622346
nan
nan
0.12955742
0.16577895
0.20641349
0.22824958
0.24976246
0.27192912
0.32817176
0.33459455
0.36666667
-0.044000015
-0.0038925463
0.0077165281
0.045627035
nan
0.10649234
nan
0.1607365
0.19186813
0.19680829
0.21954994
0.28274527
0.31686109
0.34560803
0.36237064
0.39599997
-0.014666691
0.02753609
0.046810031
0.072455175
0.10642531
0.1395748
0.14848629
0.1881849
0.22081977
0.24755111
0.27950472
0.30127266
0.34660023
0.3731744
0.39380807
0.42533332
0.014666662
0.044
0.073333323
0.10266666
0.132
0.16133332
0.19066666
0.21999998
0.24933332
0.27866668
0.30799997
0.33733332
0.36666667
0.39599997
0.42533332
0.45466667
-0.396
-0.36666664
-0.33733335
-0.308
-0.27866668
-0.24933335
-0.22
-0.19066668
-0.16133334
-0.132
-0.10266668
-0.073333353
-0.044
-0.014666677
0.014666647
0.044
-0.36666664
-0.33293048
-0.331844
-0.27060598
-0.25029042
-0.22482583
-0.18627651
-0.14559098
-0.13303895
-0.10343819
-0.072947539
-0.038366079
0.0047760867
0.012194334
0.038518291
0.073333338
-0.33733335
-0.31551653
-0.26146108
-0.2503306
-0.22436646
-0.20252475
-0.18633395
-0.14601414
-0.12624449
-0.080313064
-0.045988135
-0.014755261
-0.00089475984
0.050591156
0.06170778
0.10266666
-0.308
-0.28584829
-0.26131687
-0.20791557
-0.18005003
-0.16535172
-0.13941191
-0.10606323
-0.058977593
-0.064518355
-0.013537151
0.003996809
0.067197278
0.063840292
0.093919612
0.132
-0.27866668
-0.25493723
-0.21003123
-0.20166218
nan
-0.1190248
-0.10305303
-0.053566881
-0.07885468
0.0026178551
0.028425429
0.031862561
0.074042358
0.094319001
0.1418497
0.16133332
-0.24933335
-0.22900574
-0.18408641
-0.14867164
-0.13204569
-0.10897164
-0.10783219
-0.043230232
-0.018770522
0.00033698967
0.048875097
0.081637107
0.083239131
0.13757439
0.1688838
0.19066666
-0.22
-0.20545889
-0.15668075
-0.1368438
-0.10640702
-0.095580846
-0.069833338
-0.010345993
0.038593397
0.035284232
0.058682773
0.085875928
0.12513658
0.149655
0.18218011
0.22
-0.19066668
-0.16434011
-0.1441768
-0.072407827
-0.056966268
-0.044699259
-0.020110883
0.0002553839
0.037752979
0.085633121
0.092015602
0.13758864
0.13275857
0.18895127
0.20967384
0.24933332
-0.16133334
-0.10745128
-0.093250029
-0.075625546
-0.07451681
-0.032243438
0.0051832031
0.023745226
0.092810407
0.11517581
0.12803543
0.18492919
0.20952393
0.20371062
0.27174902
0.27866668
-0.132
-0.078405678
-0.083984427
-0.050225824
-0.010444789
0.0035534115
0.043896221
nan
0.10298915
0.12385341
0.17943513
0.19647864
0.19997589
0.26751015
0.29338798
0.308
-0.10266668
nan
-0.031373013
-0.020128487
-0.0079438742
0.037637647
0.071954586
nan
nan
0.16283475
nan
0.21675152
0.2652916
0.29023191
0.31686938
0.33733332
-0.073333353
-0.038886055
-0.0075510098
0.0043297829
nan
0.0765035
0.10162356
0.13117212
0.16159025
nan
0.21607512
0.23720084
0.25110692
0.30765525
0.35633785
0.36666664
-0.044
-0.01992603
0.0069100251
0.04387597
0.067259617
nan
0.14165959
nan
0.18568978
0.21668071
0.24983771
0.28838646
0.31513491
0.3293705
0.36068898
0.396
-0.014666677
0.0094502652
0.022831971
0.056580365
0.11240985
nan
0.16762725
0.17867096
0.20830287
0.22962603
0.28207913
0.29878938
0.34553152
0.35633683
0.39177385
0.42533332
0.014666647
0.041823655
0.073525511
0.10922432
0.12219268
0.15210108
0.18070965
0.22384615
0.23218177
0.27142391
0.30920729
0.33904395
0.36669996
0.39842182
0.4285391
0.45466664
0.044
0.073333338
0.10266666
0.132
0.16133332
0.19066666
0.22
0.24933332
0.27866668
0.308
0.33733332
0.36666664
0.396
0.42533332
0.45466664
0.484
-0.36666667
-0.33733332
-0.30800003
-0.27866668
-0.24933335
-0.22000003
-0.19066668
-0.16133335
-0.13200001
-0.10266668
-0.073333353
-0.04400003
-0.014666677
0.014666647
0.04399997
0.073333323
-0.33733332
-0.31659168
-0.27350792
-0.23693402
-0.22580867
-0.1662657
-0.1739562
-0.13289452
-0.11378734
-0.071307667
-0.050165944
-0.016297465
0.021739122
0.031261779