# vtk DataFile Version 3.0
WoSt Poisson solution ã?structured grid
ASCII
DATASET STRUCTURED_POINTS
DIMENSIONS 8 8 8
ORIGIN -0.22 -0.22 -0.22
SPACING 0.062857144 0.062857144 0.062857144
POINT_DATA 512
SCALARS solution float 1
LOOKUP_TABLE default
-0.65999997
-0.59714282
-0.53428566
-0.47142857
-0.40857142
-0.34571427
-0.28285715
-0.22
-0.59714282
-0.53428566
-0.47142854
-0.40857142
-0.34571427
-0.28285712
-0.22
-0.15714285
-0.53428566
-0.47142854
-0.40857142
-0.34571427
-0.28285712
-0.21999998
-0.15714286
-0.094285712
-0.47142857
-0.40857142
-0.34571427
-0.28285715
-0.22
-0.15714285
-0.094285727
-0.031428576
-0.40857142
-0.34571427
-0.28285712
-0.22
-0.15714285
-0.094285697
-0.031428576
0.031428576
-0.34571427
-0.28285712
-0.21999998
-0.15714285
-0.094285697
-0.031428546
0.031428576
0.094285727
-0.28285715
-0.22
-0.15714286
-0.094285727
-0.031428576
0.031428576
0.094285697
0.15714285
-0.22
-0.15714285
-0.094285712
-0.031428576
0.031428576
0.094285727
0.15714285
0.22
-0.59714282
-0.53428566
-0.47142854
-0.40857142
-0.34571427
-0.28285712
-0.22
-0.15714285
-0.53428566
-0.48219162
-0.38666433
-0.3350414
-0.29090047
-0.204193
-0.16312571
-0.094285697
-0.47142854
-0.4066388
-0.338983
-0.28892514
-0.22425406
-0.15784845
-0.097678654
-0.031428561
-0.40857142
-0.34971273
-0.30592242
-0.23666231
-0.17218597
-0.10924129
-0.038630012
0.031428576
-0.34571427
-0.2896328
-0.21435599
-0.14785992
-0.11582895
-0.032141302
0.040745277
0.094285727
-0.28285712
-0.22447002
-0.16040838
-0.088016123
-0.040609542
0.035945177
0.098169409
0.15714288
-0.22
-0.15608975
-0.092540435
-0.047254369
0.025254015
0.098466925
0.16669303
0.22
-0.15714285
-0.094285697
-0.031428561
0.031428576
0.094285727
0.15714288
0.22
0.28285715
-0.53428572
-0.47142857
-0.40857142
-0.34571427
-0.28285712
-0.21999998
-0.15714286
-0.094285712
-0.47142857
-0.41737625
-0.34328976
-0.2855854
-0.23602681
-0.17332512
-0.095835634
-0.031428561
-0.40857142
-0.33798838
-0.29814783
-0.21244466
-0.16424049
-0.089093395
-0.043926813
0.031428576
-0.34571427
-0.28878972
-0.21479243
-0.15559639
-0.088659316
-0.03491934
0.033317212
0.094285712
nan
-0.20747849
-0.16524149
-0.10041565
-0.056855366
0.034519613
0.069289975
0.15714286
-0.21999998
-0.15820794
-0.11015606
-0.050219852
0.015906636
0.085004918
0.16408788
0.22000001
-0.15714286
-0.10499818
-0.047176585
0.01972181
0.10511734
0.16073807
0.22295107
0.28285712
-0.094285712
-0.031428561
0.031428576
0.094285712
0.15714286
0.22000001
0.28285712
0.34571427
-0.47142857
-0.40857142
-0.34571427
-0.28285715
-0.22
-0.15714285
-0.094285727
-0.031428576
-0.40857142
-0.34228867
-0.27859032
-0.22916012
-0.1708041
-0.090364486
-0.022597486
0.031428576
-0.34571427
-0.27940726
-0.22344357
-0.18922363
-0.095296644
-0.037026368
0.037416339
0.094285712
-0.28285715
-0.21786934
-0.16550572
-0.13027598
-0.044849429
0.036171455
0.077539943
0.15714285
-0.22
-0.17931925
-0.12724993
-0.1153355
-0.011520473
0.074936517
0.13564289
0.22
-0.15714285
-0.13287029
-0.09307044
-0.043180346
0.084171683
0.14798369
0.2273059
0.28285715
-0.094285727
-0.033635005
-0.0046666274
0.095056511
0.18192047
0.23679008
0.26669598
0.34571427
-0.031428576
0.031428576
0.094285712
0.15714285
0.22
0.28285715
0.34571427
0.40857142
-0.40857142
-0.34571427
-0.28285712
-0.22
-0.15714285
-0.094285697
-0.031428576
0.031428576
-0.34571427
-0.28119153
-0.21962555
-0.16221346
-0.10491032
-0.01346436
0.036715105
0.094285727
-0.28285712
-0.21177606
-0.14451584
-0.11199931
-0.039175432
0.040684547
0.091547288
0.15714286
-0.22
-0.17839952
-0.074552894
-0.06827461
0.045264576
0.080940478
0.14324026
0.22
-0.15714285
-0.096673571
-0.053584535
-0.033283237
0.10238595
0.15299277
0.23484094
0.28285715
-0.094285697
-0.049249291
-0.0010663666
nan
nan
0.23673436
0.28756738
0.3457143
-0.031428576
0.03614581
0.1114292
0.22082974
0.25855353
0.29967344
0.34114242
0.40857142
0.031428576
0.094285727
0.15714286
0.22
0.28285715
0.3457143
0.40857142
0.47142857
-0.34571427
-0.28285712
-0.21999997
-0.15714285
-0.094285697
-0.031428546
0.031428576
0.094285727
-0.28285712
-0.22436021
-0.14068113
-0.11424294
-0.032289535
0.051990923
0.099352002
0.15714288
-0.21999997
-0.15584919
-0.092458442
-0.057213575
0.037844911
0.094002448
0.17711493
0.22000001
-0.15714285
-0.087936588
-0.047504738
-0.0085148429
0.06920363
0.14700788
0.20430963
0.28285715
-0.094285697
-0.033099167
0.035755474
0.12495651
0.16037621
0.2433688
0.28277224
0.3457143
-0.031428546
0.023177709
0.07255777
0.1967894
0.28992411
0.26912582
0.34363851
0.40857145
0.031428576
0.10026983
nan
0.2427218
0.29457405
0.35458952
0.38897735
0.47142857
0.094285727
0.15714288
0.22000001
0.28285715
0.3457143
0.40857145
0.47142857
0.53428572
-0.28285715
-0.22
-0.15714285
-0.094285727
-0.031428576
0.031428576
0.094285697
0.15714285
-0.22
-0.15139969
-0.098074026
-0.031841796
0.041151732
0.11046638
0.15834039
0.22
-0.15714285
-0.088847503
-0.022609118
0.041577563
0.10022529
0.17016461
0.21494311
0.28285712
-0.094285727
-0.021500355
0.053800181
0.11186811
0.16677774
0.23221926
0.27948967
0.34571427
-0.031428576
0.03756687
0.078469664
0.17200778
0.22450905
0.30048341
0.36392593
0.40857142
0.031428576
0.086971022
0.15553994
0.23277709
0.27371556
0.35816136
0.41398335
0.47142857
0.094285697
0.17339627
0.22297376
0.29593298
0.34147251
0.39941293
0.4865008
0.53428566
0.15714285
0.22
0.28285712
0.34571427
0.40857142
0.47142857
0.53428566
0.59714282
-0.22
-0.15714285
-0.094285697
-0.031428576
0.031428576
0.094285727
0.15714285
0.22
-0.15714285
-0.094285697
-0.031428546
0.031428576
0.094285727
0.15714288
0.22
0.28285715
-0.094285697
-0.031428546
0.031428576
0.094285712
0.15714286
0.22000001
0.28285712
0.34571427
-0.031428576
0.031428576
0.094285712
0.15714285
0.22
0.28285715
0.34571427
0.40857142
0.031428576
0.094285727
0.15714286
0.22
0.28285715
0.3457143
0.40857142
0.47142857
0.094285727
0.15714288
0.22000001
0.28285715
0.3457143
0.40857145
0.47142857
0.53428572
0.15714285
0.22
0.28285712
0.34571427
0.40857142
0.47142857
0.53428566
0.59714282
0.22
0.28285715
0.34571427
0.40857142
0.47142857
0.53428572
0.59714282
0.65999997
SCALARS is_valid float 1
LOOKUP_TABLE default
1
1
1
1
1
1
1
1
1
1
1
1
1
1
1
1
1
1
1
1
1
1
1
1
1
1
1
1
1
1
1
1
1
1
1
1
1
1
1
1
1
1
1
1
1
1
1
1
1
1
1
1
1
1
1
1
1
1
1
1
1
1
1
1
1
1
1
1
1
1
1
1
1
1
1
1
1
1
1
1
1
1
1
1
1
1
1
1
1
1
1
1
1
1
1
1
1
1
1
1
1
1
1
1
1
1
1
1
1
1
1
1
1
1
1
1
1
1
1
1
1
1
1
1
1
1
1
1
1
1
1
1
1
1
1
1
1
1
1
1
1
1
1
1
1
1
1
1
1
1
1
1
1
1
1
1
1
1
1
1
0
1
1
1
1
1
1
1
1
1
1
1
1
1
1
1
1
1
1
1
1
1
1
1
1
1
1
1
1
1
1
1
1
1
1
1
1
1
1
1
1
1
1
1
1
1
1
1
1
1
1
1
1
1
1
1
1
1
1
1
1
1
1
1
1
1
1
1
1
1
1
1
1
1
1
1
1
1
1
1
1
1
1
1
1
1
1
1
1
1
1
1
1
1
1
1
1
1
1
1
1
1
1
1
1
1
1
1
1
1
1
1
1
1
1
1
1
1
1
1
1
1
1
1
1
1
1
1
1
1
1
1
1
1
1
1
1
1
1
0
0
1
1
1
1
1
1
1
1
1
1
1
1
1
1
1
1
1
1
1
1
1
1
1
1
1
1
1
1
1
1
1
1
1
1
1
1
1
1
1
1
1
1
1
1
1
1
1
1
1
1
1
1
1
1
1
1
1
1
1
1
1
1
1
1
1
1
1
1
1
0
1
1
1
1
1
1
1
1
1
1
1
1
1
1
1
1
1
1
1
1
1
1
1
1
1
1
1
1
1
1
1
1
1
1
1
1
1
1
1
1
1
1
1
1
1
1
1
1
1
1
1
1
1
1
1
1
1
1
1
1
1
1
1
1
1
1
1
1
1
1
1
1
1
1
1
1
1
1
1
1
1
1
1
1
1
1
1
1
1
1
1
1
1
1
1
1
1
1
1
1
1
1
1
1
1
1
1
1
1
1
1
1
1
1
1
1
1
1
1
1
1
1
1
1
1
1
1
1
1
1
1
1
1
1
1
1
1
1
1
1
1
SCALARS std_error float 1
LOOKUP_TABLE default
0
0
0
0
0
0
0
0
0
0
0
0
0
0
0
0
0
0
0
0
0
0
0
0
0
0
0
0
0
0
0
0
0
0
0
0
0
0
0
0
0
0
0
0
0
0
0
0
0
0
0
0
0
0
0
0
0
0
0
0
0
0
0
0
0
0
0
0
0
0
0
0
0
0.0064491467
0.010096012
0.0097825509
0.0091391914
0.0091156634
0.006827041
0
0
0.0089984378
0.010711438
0.01059818
0.01007181
0.0097256172
0.0083772913
0
0
0.0076014176
0.010424905
0.010498493
0.011368634
0.010916929
0.0086926995
0
0
0.008403928
0.011224031
0.012106077
0.010664094
0.011322843
0.0083418349
0
0
0.0096899662
0.0096582649
0.010282325
0.011515482
0.010534502
0.0084504057
0
0
0.0072931801
0.0086064525
0.0083651021
0.0086174887
0.008237741
0.0069517666
0
0
0
0
0
0
0
0
0
0
0
0
0
0
0
0
0
0
0.0072091972
0.010606856
0.01085281
0.00978202
0.010053659
0.009132321
0
0
0.010525412
0.011603647
0.013846111
0.014664229
0.012934399
0.010969362
0
0
0.010300869
0.014022104
0.014891616
0.014834085
0.012920476
0.011109239
0
0
0.011291637
0.013085876
0.014220867
0.014957819
0.014115182
0.012365943
0
0
0.010327231
0.012705524
0.013264499
0.014055707
0.014349707
0.010524786
0
0
0.0084700407
0.011360086
0.011463985
0.011949548
0.010566719
0.0076998398
0
0
0
0
0
0
0
0
0
0
0
0
0
0
0
0
0
0
0.010188676
0.011820543
0.011346584
0.010781614
0.010625096
0.0089146728
0
0
0.011994475
0.012923149
0.014774094
0.014323233
0.013310656
0.011406709
0
0
0.011787851
0.013701862
0.015578794
0.016142791
0.015718518
0.011540973
0
0
0.010864879
0.013535997
0.015299313
0.01640472
0.015146351
0.013015233
0
0
0.010107725
0.012577111
0.015202204
0.015180147
0.014476122
0.012032661
0
0
0.0092382831
0.010997338
0.011854827
0.012916945
0.01174714
0.010740876
0
0
0
0
0
0
0
0
0
0
0
0
0
0
0
0
0
0
0.010120341
0.010763441
0.011530085
0.011844048
0.010593548
0.0095887743
0
0
0.010788898
0.013499963
0.015137561
0.014999892
0.01350524
0.010873917
0
0
0.010286554
0.015471098
0.01601441
0.015841845
0.015355295
0.013129812
0
0
0.010938038
0.014584285
0.016691908
0.017096216
0.015244862
0.010997826
0
0
0.011264664
0.014141408
0
0
0.013736458
0.010161545
0
0
0.0094012218
0.011179194
0.011486772
0.010564856
0.011018672
0.010017958
0
0
0
0
0
0
0
0
0
0
0
0
0
0
0
0
0
0
0.0081036119
0.012248405
0.010914536
0.010780912
0.010229581
0.0088272654
0
0
0.0098755909
0.01375048
0.013241281
0.014368019
0.013703715
0.010235619
0
0
0.010839849
0.013708358
0.015027935
0.015536679
0.014206633
0.012098225
0
0
0.011195223
0.014803994
0.013596321
0.015502188
0.013176894
0.010617888
0
0
0.010912863
0.013513646
0.012812796
0.010735991
0.0139889
0.011037181
0
0
0.008872251
0
0.010699086
0.011534626
0.010963052
0.010732192
0
0
0
0
0
0
0
0
0
0
0
0
0
0
0
0
0
0
0.0080545293
0.0085513685
0.0094474936
0.0096051283
0.008357062
0.0067326492
0
0
0.0086854203
0.010453126
0.010975982
0.0109862
0.010363528
0.0096310144
0
0
0.0092344712
0.011296903
0.010522938
0.011308203
0.010706729
0.0092163421
0
0
0.0086893616
0.01222104
0.011446976
0.011212702
0.010232334
0.0078740641
0
0
0.0086320173
0.011064776
0.011387495
0.012144665
0.009558199
0.0070896866
0
0
0.0073137013
0.0089793894
0.0078374557
0.0094059231
0.0097893439
0.0055805482
0
0
0
0
0
0
0
0
0
0
0
0
0
0
0
0
0
0
0
0
0
0
0
0
0
0
0
0
0
0
0
0
0
0
0
0
0
0
0
0
0
0
0
0
0
0
0
0
0
0
0
0
0
0
0
0
0
0
0
0
0
0
0
0
0
0
0
0
0
0
0
0
0
SCALARS mean_steps float 1
LOOKUP_TABLE default
1
1
1
1
1
1
1
1
1
1
1
1
1
1
1
1
1
1
1
1
1
1
1
1
1
1
1
1
1
1
1
1
1
1
1
1
1
1
1
1
1
1
1
1
1
1
1
1
1
1
1
1
1
1
1
1
1
1
1
1
1
1
1
1
1
1
1
1
1
1
1
1
1
20.984375
26.472656
27.277344
23.558594
24.609375
20.628906
1
1
26.617188
32.496094
29.25
27.914062
24.546875
26.242188
1
1
25.699219
32.386719
30.101562
36.269531
26.289062
24.929688
1
1
28.429688
39.316406
44.445312
35.722656
36.273438
28.148438
1
1
32.796875
40.160156
44.769531
46.882812
35.632812
25.472656
1
1
27.417969
27.957031
29.445312
37.097656
28.871094
23.976562
1
1
1
1
1
1
1
1
1
1
1
1
1
1
1
1
1
1
25.976562
29.925781
28.847656
26.632812
28.222656
22.351562
1
1
29.710938
29.855469
37.785156
43.277344
31.082031
28.871094
1
1
35.03125
56.941406
47.019531
55.164062
37.917969
27.230469
1
0
40.289062
65.054688
63.726562
71.207031
46.765625
35.726562
1
1
41.355469
62.503906
77.195312
70.101562
56.746094
34.480469
1
1
32.199219
57.21875
58.914062
58.566406
36.539062
27.371094
1
1
1
1
1
1
1
1
1
1
1
1
1
1
1
1
1
1
25.886719
34.8125
31.25
30.570312
29.460938
21.425781
1
1
32.617188
41.363281
59.238281
45.046875
37.183594
25.234375
1
1
43.429688
60.21875
68.945312
75.246094
49.6875
41.117188
1
1
52.351562
95.226562
136.11328
112.66016
59.382812
42.632812
1
1
61.871094
108.67969
153.46094
120.51953
80.300781
39.984375
1
1
45.453125
87.722656
131.46875
83.714844
52.917969
31.808594
1
1
1
1
1
1
1
1
1
1
1
1
1
1
1
1
1
1
25.15625
35.25
29.757812
29.800781
30.050781
27.621094
1
1
33.300781
38.566406
50.445312
41.65625
34.554688
26.859375
1
1
44.398438
64.449219
68.582031
67.253906
48.683594
35.238281
1
1
53.097656
100.06641
151.51953
132.55469
78.367188
43.988281
1
1
60.722656
118.50781
0
0
70.367188
39.621094
1
1
34.84375
85.839844
115.4375
66.898438
58.949219
29.5625
1
1
1
1
1
1
1
1
1
1
1
1
1
1
1
1
1
1
25.457031
26.257812
30.136719
30.027344
29.003906
24.589844
1
1
30.550781
39.8125
37.019531
35.679688
33.953125
26.789062
1
1
36.84375
53.238281
54.4375
55.945312
39.476562
34.816406
1
1
40.277344
71.363281
76.824219
85.910156
53.113281
43.335938
1
1
45.941406
65.015625
86.53125
72.933594
57.226562
37.890625
1
1
39.960938
0
69.117188
59.476562
42.824219
28.070312
1
1
1
1
1
1
1
1
1
1
1
1
1
1
1
1
1
1
23.425781
23.039062
22.199219
26.175781
24.257812
19.789062
1
1
25.730469
31.652344
35.554688
34.316406
27.402344
25.851562
1
1
27.496094
39.832031
36.035156
34.171875
33.957031
26.484375
1
1
29.359375
40.769531
47.058594
45.304688
36.453125
26.164062
1
1
29.847656
45.3125
52.792969
43.957031
38.335938
30.15625
1
1
26.644531
31.886719
37.324219
36.820312
35.855469
22.386719
1
1
1
1
1
1
1
1
1
1
1
1
1
1
1
1
1
1
1
1
1
1
1
1
1
1
1
1
1
1
1
1
1
1
1
1
1
1
1
1
1
1
1
1
1
1
1
1
1
1
1
1
1
1
1
1
1
1
1
1
1
1
1
1
1
1
1
1
1
1
1
1
1
SCALARS samples_used int 1
LOOKUP_TABLE default
256
256
256
256
256
256
256
256
256
256
256
256
256
256
256
256
256
256
256
256
256
256
256
256
256
256
256
256
256
256
256
256
256
256
256
256
256
256
256
256
256
256
256
256
256
256
256
256
256
256
256
256
256
256
256
256
256
256
256
256
256
256
256
256
256
256
256
256
256
256
256
256
256
256
256
256
256
256
256
256
256
256
256
256
256
256
256
256
256
256
256
256
256
256
256
256
256
256
256
256
256
256
256
256
256
256
256
256
256
256
256
256
256
256
256
256
256
256
256
256
256
256
256
256
256
256
256
256
256
256
256
256
256
256
256
256
256
256
256
256
256
256
256
256
256
256
256
256
256
256
256
256
256
256
256
256
256
256
256
256
0
256
256
256
256
256
256
256
256
256
256
256
256
256
256
256
256
256
256
256
256
256
256
256
256
256
256
256
256
256
256
256
256
256
256
256
256
256
256
256
256
256
256
256
256
256
256
256
256
256
256
256
256
256
256
256
256
256
256
256
256
256
256
256
256
256
256
256
256
256
256
256
256
256
256
256
256
256
256
256
256
256
256
256
256
256
256
256
256
256
256
256
256
256
256
256
256
256
256
256
256
256
256
256
256
256
256
256
256
256
256
256
256
256
256
256
256
256
256
256
256
256
256
256
256
256
256
256
256
256
256
256
256
256
256
256
256
256
256
0
0
256
256
256
256
256
256
256
256
256
256
256
256
256
256
256
256
256
256
256
256
256
256
256
256
256
256
256
256
256
256
256
256
256
256
256
256
256
256
256
256
256
256
256
256
256
256
256
256
256
256
256
256
256
256
256
256
256
256
256
256
256
256
256
256
256
256
256
256
256
0
256
256
256
256
256
256
256
256
256
256
256
256
256
256
256
256
256
256
256
256
256
256
256
256
256
256
256
256
256
256
256
256
256
256
256
256
256
256
256
256
256
256
256
256
256
256
256
256
256
256
256
256
256
256
256
256
256
256
256
256
256
256
256
256
256
256
256
256
256
256
256
256
256
256
256
256
256
256
256
256
256
256
256
256
256
256
256
256
256
256
256
256
256
256
256
256
256
256
256
256
256
256
256
256
256
256
256
256
256
256
256
256
256
256
256
256
256
256
256
256
256
256
256
256
256
256
256
256
256
256
256
256
256
256
256
256
256
256
256
256
256
SCALARS exact float 1
LOOKUP_TABLE default
-0.65999997
-0.59714282
-0.53428566
-0.47142857
-0.40857142
-0.34571427
-0.28285715
-0.22
-0.59714282
-0.53428566
-0.47142854
-0.40857142
-0.34571427
-0.28285712
-0.22
-0.15714285
-0.53428566
-0.47142854
-0.40857142
-0.34571427
-0.28285712
-0.21999998
-0.15714286
-0.094285712
-0.47142857
-0.40857142
-0.34571427
-0.28285715
-0.22
-0.15714285
-0.094285727
-0.031428576
-0.40857142
-0.34571427
-0.28285712
-0.22
-0.15714285
-0.094285697
-0.031428576
0.031428576
-0.34571427
-0.28285712
-0.21999998
-0.15714285
-0.094285697
-0.031428546
0.031428576
0.094285727
-0.28285715
-0.22
-0.15714286
-0.094285727
-0.031428576
0.031428576
0.094285697
0.15714285
-0.22
-0.15714285
-0.094285712
-0.031428576
0.031428576
0.094285727
0.15714285
0.22
-0.59714282
-0.53428566
-0.47142854
-0.40857142
-0.34571427
-0.28285712
-0.22
-0.15714285
-0.53428566
-0.47142854
-0.40857139
-0.34571427
-0.28285712
-0.21999997
-0.15714285
-0.094285697
-0.47142854
-0.40857139
-0.34571427
-0.28285712
-0.21999998
-0.15714283
-0.094285712
-0.031428561
-0.40857142
-0.34571427
-0.28285712
-0.22
-0.15714285
-0.094285697
-0.031428576
0.031428576
-0.34571427
-0.28285712
-0.21999998
-0.15714285
-0.094285697
-0.031428546
0.031428576
0.094285727
-0.28285712
-0.21999997
-0.15714283
-0.094285697
-0.031428546
0.031428605
0.094285727
0.15714288
-0.22
-0.15714285
-0.094285712
-0.031428576
0.031428576
0.094285727
0.15714285
0.22
-0.15714285
-0.094285697
-0.031428561
0.031428576
0.094285727
0.15714288
0.22
0.28285715
-0.53428572
-0.47142857
-0.40857142
-0.34571427
-0.28285712
-0.21999998
-0.15714286
-0.094285712
-0.47142857
-0.40857142
-0.34571427
-0.28285712
-0.21999998
-0.15714283
-0.094285712
-0.031428561
-0.40857142
-0.34571427
-0.28285712
-0.22
-0.15714285
-0.094285697
-0.031428576
0.031428576
-0.34571427
-0.28285712
-0.22
-0.15714286
-0.094285712
-0.031428561
0.031428561
0.094285712
0
-0.21999998
-0.15714285
-0.094285712
-0.031428561
0.03142859
0.094285712
0.15714286
-0.21999998
-0.15714283
-0.094285697
-0.031428561
0.03142859
0.094285741
0.15714286
0.22000001
-0.15714286
-0.094285712
-0.031428576
0.031428561
0.094285712
0.15714286
0.21999998
0.28285712
-0.094285712
-0.031428561
0.031428576
0.094285712
0.15714286
0.22000001
0.28285712
0.34571427
-0.47142857
-0.40857142
-0.34571427
-0.28285715
-0.22
-0.15714285
-0.094285727
-0.031428576
-0.40857142
-0.34571427
-0.28285712
-0.22
-0.15714285
-0.094285697
-0.031428576
0.031428576
-0.34571427
-0.28285712
-0.22
-0.15714286
-0.094285712
-0.031428561
0.031428561
0.094285712
-0.28285715
-0.22
-0.15714286
-0.094285727
-0.031428576
0.031428576
0.094285697
0.15714285
-0.22
-0.15714285
-0.094285712
-0.031428576
0.031428576
0.094285727
0.15714285
0.22
-0.15714285
-0.094285697
-0.031428561
0.031428576
0.094285727
0.15714288
0.22
0.28285715
-0.094285727
-0.031428576
0.031428561
0.094285697
0.15714285
0.22
0.28285712
0.34571427
-0.031428576
0.031428576
0.094285712
0.15714285
0.22
0.28285715
0.34571427
0.40857142
-0.40857142
-0.34571427
-0.28285712
-0.22
-0.15714285
-0.094285697
-0.031428576
0.031428576
-0.34571427
-0.28285712
-0.21999997
-0.15714285
-0.094285697
-0.031428546
0.031428576
0.094285727
-0.28285712
-0.21999997
-0.15714285
-0.094285712
-0.031428561
0.03142859
0.094285712
0.15714286
-0.22
-0.15714285
-0.094285712
-0.031428576
0.031428576
0.094285727
0.15714285
0.22
-0.15714285
-0.094285697
-0.031428561
0.031428576
0.094285727
0.15714288
0.22
0.28285715
-0.094285697
-0.031428546
0.03142859
0
0
0.22000003
0.28285715
0.3457143
-0.031428576
0.031428576
0.094285712
0.15714285
0.22
0.28285715
0.34571427
0.40857142
0.031428576
0.094285727
0.15714286
0.22
0.28285715
0.3457143
0.40857142
0.47142857
-0.34571427
-0.28285712
-0.21999997
-0.15714285
-0.094285697
-0.031428546
0.031428576
0.094285727
-0.28285712
-0.21999997
-0.15714282
-0.094285697
-0.031428546
0.031428605
0.094285727
0.15714288
-0.21999997
-0.15714282
-0.094285697
-0.031428561
0.03142859
0.094285741
0.15714286
0.22000001
-0.15714285
-0.094285697
-0.031428561
0.031428576
0.094285727
0.15714288
0.22
0.28285715
-0.094285697
-0.031428546
0.03142859
0.094285727
0.15714288
0.22000003
0.28285715
0.3457143
-0.031428546
0.031428605
0.094285741
0.15714288
0.22000003
0.28285718
0.3457143
0.40857145
0.031428576
0.094285727
0
0.22
0.28285715
0.3457143
0.40857142
0.47142857
0.094285727
0.15714288
0.22000001
0.28285715
0.3457143
0.40857145
0.47142857
0.53428572
-0.28285715
-0.22
-0.15714285
-0.094285727
-0.031428576
0.031428576
0.094285697
0.15714285
-0.22
-0.15714285
-0.094285697
-0.031428576
0.031428576
0.094285727
0.15714285
0.22
-0.15714285
-0.094285697
-0.031428576
0.031428561
0.094285712
0.15714286
0.21999998
0.28285712
-0.094285727
-0.031428576
0.031428561
0.094285697
0.15714285
0.22
0.28285712
0.34571427
-0.031428576
0.031428576
0.094285712
0.15714285
0.22
0.28285715
0.34571427
0.40857142
0.031428576
0.094285727
0.15714286
0.22
0.28285715
0.3457143
0.40857142
0.47142857
0.094285697
0.15714285
0.21999998
0.28285712
0.34571427
0.40857142
0.47142854
0.53428566
0.15714285
0.22
0.28285712
0.34571427
0.40857142
0.47142857
0.53428566
0.59714282
-0.22
-0.15714285
-0.094285697
-0.031428576
0.031428576
0.094285727
0.15714285
0.22
-0.15714285
-0.094285697
-0.031428546
0.031428576
0.094285727
0.15714288
0.22
0.28285715
-0.094285697
-0.031428546
0.031428576
0.094285712
0.15714286
0.22000001
0.28285712
0.34571427
-0.031428576
0.031428576
0.094285712
0.15714285
0.22
0.28285715
0.34571427
0.40857142
0.031428576
0.094285727
0.15714286
0.22
0.28285715
0.3457143
0.40857142
0.47142857
0.094285727
0.15714288
0.22000001
0.28285715
0.3457143
0.40857145
0.47142857
0.53428572
0.15714285
0.22
0.28285712
0.34571427
0.40857142
0.47142857
0.53428566
0.59714282
0.22
0.28285715
0.34571427
0.40857142
0.47142857
0.53428572
0.59714282
0.65999997
SCALARS abs_error float 1
LOOKUP_TABLE default
0
0
0
0
0
0
0
0
0
0
0
0
0
0
0
0
0
0
0
0
0
0
0
0
0
0
0
0
0
0
0
0
0
0
0
0
0
0
0
0
0
0
0
0
0
0
0
0
0
0
0
0
0
0
0
0
0
0
0
0
0
0
0
0
0
0
0
0
0
0
0
0
0
0.010763079
0.021907061
0.010672867
0.0080433488
0.015806973
0.0059828609
0
0
0.0019325912
0.0067312717
0.0060680211
0.0042540729
0.00070561469
0.0033929422
0
0
0.0039984584
0.023065299
0.016662315
0.015043125
0.014955595
0.0072014369
0
0
0.0067756772
0.0056439936
0.0092829317
0.021543249
0.00071275607
0.0093167014
0
0
0.0044700503
0.0032655448
0.0062695742
0.0091809966
0.0045165718
0.0038836822
0
0
0.0010530949
0.0017452762
0.015825793
0.0061745606
0.0041811988
0.009550184
0
0
0
0
0
0
0
0
0
0
0
0
0
0
0
0
0
0
0.0088048279
0.0024245083
0.0027282834
0.016026825
0.016182289
0.0015499219
0
0
0.0077258945
0.015290707
0.0075553358
0.0070976466
0.0051923022
0.012498237
0
0
0.0059325993
0.0052075684
0.0015464723
0.0056263953
0.0034907795
0.0018886514
0
0
0.01252149
0.008098647
0.0061299428
0.025426805
0.0030910224
0.024995737
0
0
0.0010651052
0.015870363
0.018791292
0.015521955
0.0092808232
0.006945014
0
0
0.010712467
0.015748009
0.011706751
0.010831624
0.0035952032
0.0029510856
0
0
0
0
0
0
0
0
0
0
0
0
0
0
0
0
0
0
0.0034255981
0.0042667985
0.0091601163
0.01366125
0.0039212108
0.0088310894
0
0
0.0034498572
0.0034435689
0.03208077
0.001010932
0.0055978075
0.0059877783
0
0
0.0021306574
0.0083628595
0.035990253
0.013420854
0.0047428794
0.016745754
0
0
0.0221764
0.032964215
0.083906926
0.042949051
0.01934921
0.021499962
0
0
0.03858459
0.061641879
0.074608922
0.010114044
0.0091591924
0.0073059052
0
0
0.0022064298
0.036095187
0.00077081472
0.024777621
0.016790077
0.016161144
0
0
0
0
0
0
0
0
0
0
0
0
0
0
0
0
0
0
0.0016655922
0.00037442148
0.0050706118
0.010624625
0.017964186
0.0052865297
0
0
0.0082239062
0.012627006
0.017713599
0.0077468716
0.0092559569
0.0027384236
0
0
0.02125667
0.019732818
0.036846034
0.013836
0.013345249
0.01390259
0
0
0.0023878738
0.022155974
0.064711809
0.0081002265
0.0041501075
0.014840946
0
0
0.017820746
0.032494958
0
0
0.016734332
0.0047102273
0
0
0.0047172345
0.017143488
0.063686892
0.038553536
0.016816288
0.0045718551
0
0
0
0
0
0
0
0
0
0
0
0
0
0
0
0
0
0
0.0043602437
0.016461685
0.019957244
0.00086098909
0.020562317
0.0050662756
0
0
0.0012936294
0.0018272549
0.025785014
0.0064163208
0.00028329343
0.019972071
0
0
0.0063491091
0.016076177
0.039943419
0.025082096
0.010134995
0.015690371
0
0
0.0016706213
0.0043268837
0.030670784
0.0032333285
0.023368776
8.4906816e-05
0
0
0.0082508959
0.021727972
0.039646521
0.069924086
0.01373136
0.0020757914
0
0
0.0059841052
0
0.022721797
0.011716902
0.008875221
0.019594073
0
0
0
0
0
0
0
0
0
0
0
0
0
0
0
0
0
0
0.0057431608
0.0037883297
0.00041322038
0.0097231567
0.016180657
0.0011975467
0
0
0.0054381937
0.0088194571
0.010149002
0.0059395805
0.013021752
0.005056873
0
0
0.0099282209
0.02237162
0.017582409
0.0096348971
0.012219265
0.0033674538
0
0
0.0061382949
0.015816048
0.014864936
0.0045090467
0.017626256
0.018211663
0
0
0.0073147044
0.0016029179
0.01277709
0.0091415942
0.012447059
0.0054119229
0
0
0.016253427
0.00297378
0.013075858
0.0042417645
0.0091584921
0.015072256
0
0
0
0
0
0
0
0
0
0
0
0
0
0
0
0
0
0
0
0
0
0
0
0
0
0
0
0
0
0
0
0
0
0
0
0
0
0
0
0
0
0
0
0
0
0
0
0
0
0
0
0
0
0
0
0
0
0
0
0
0
0
0
0
0
0
0
0
0
0
0
0
0
