# vtk DataFile Version 3.0
Zombie Bunny baseline point cloud
ASCII
DATASET POLYDATA
POINTS 498 float
-0.11997214704751968 -0.08062633126974106 0.13084080815315247
0.07755205780267715 -0.04791179671883583 -0.07356186956167221
0.04325585067272186 -0.13783696293830872 0.07601265609264374
0.19439326226711273 -0.11077188700437546 0.19750770926475525
0.07358448207378387 -0.17780490219593048 -0.025590546429157257
0.17005115747451782 0.08687953650951385 -0.07635194063186646
0.10292839258909225 -0.1231406182050705 -0.18409839272499084
-0.14964593946933746 -0.07035592198371887 -0.015315012075006962
-0.10277474671602249 0.13894161581993103 -0.13495047390460968
-0.1630336046218872 -0.17966750264167786 0.043369926512241364
0.15608644485473633 0.044713348150253296 0.1900748759508133
0.09890379756689072 0.15864257514476776 0.1889086365699768
0.020321844145655632 0.1925760954618454 -0.0022053064312785864
-0.09953980147838593 -0.02121736854314804 0.07261712849140167
-0.07440798729658127 0.1775197684764862 -0.10688736289739609
-0.07047553360462189 -0.10610450804233551 -0.06360355019569397
-0.2177901715040207 0.05658600106835365 -0.09575160592794418
-0.1900414228439331 0.05140475183725357 -0.14241641759872437
-0.08606910705566406 -0.026009803637862206 -0.15391096472740173
-0.12411130219697952 -0.01129342895001173 -0.010397703386843204
-0.10769776254892349 -0.08907128125429153 -0.09721046686172485
-0.10534514486789703 -0.007584899198263884 -0.12672922015190125
-0.001922537456266582 -0.11164501309394836 0.14893236756324768
-0.14074254035949707 0.1593487709760666 -0.1415482461452484
0.11023378372192383 0.04889297857880592 -0.12797178328037262
0.11434386670589447 -0.11032535135746002 -0.18234844505786896
0.05194495618343353 0.01626606658101082 0.0591917522251606
-0.1432753950357437 -0.1108076274394989 0.08132211118936539
-0.18441647291183472 0.16503238677978516 -0.03137447312474251
0.052093446254730225 -0.08223357796669006 -0.14125634729862213
-0.21572665870189667 -0.12758110463619232 0.16280029714107513
0.2080451101064682 -0.02561136893928051 -0.05335022136569023
-0.09858328104019165 0.20508581399917603 -0.19439084827899933
-0.04015708342194557 -0.145803302526474 -0.11433661729097366
0.12320345640182495 -0.1303422600030899 0.022902419790625572
-0.058522578328847885 0.0032039573416113853 -0.07328736782073975
-0.09560246020555496 -0.09599466621875763 -0.18243223428726196
-0.008001991547644138 0.1686708778142929 0.1967802196741104
-0.207951158285141 0.1838109940290451 -0.16652920842170715
0.10905301570892334 0.17446912825107574 -0.1461108922958374
-0.07415618002414703 -0.05361108481884003 -0.0673864558339119
0.007152508478611708 -0.216042622923851 -0.034021589905023575
0.1661694049835205 -0.18154172599315643 -0.007002680096775293
-0.008259800262749195 0.12433145940303802 0.20440621674060822
0.09112243354320526 -0.0995558425784111 0.07484985142946243
-0.06708468496799469 0.11797624826431274 0.07733942568302155
0.21011409163475037 0.16135230660438538 -0.19971247017383575
-0.09225756675004959 0.15945208072662354 0.0443730466067791
-0.0685264989733696 -0.1955348700284958 0.11566397547721863
-0.21933172643184662 -0.1791488379240036 0.21714183688163757
0.12144575268030167 0.16203917562961578 -0.010050369426608086
-0.14570659399032593 0.014950021170079708 -0.03263397514820099
-0.1482669711112976 -0.14701387286186218 -0.10641392320394516
0.19496029615402222 0.21419505774974823 0.08961322158575058
0.09818926453590393 0.1022990345954895 0.007654028013348579
-0.1419324278831482 0.1661643236875534 0.1673717498779297
0.09219520539045334 0.1907086819410324 0.21119919419288635
0.0015293441247195005 0.11333058029413223 0.051312148571014404
-0.16944880783557892 -0.0809650719165802 -0.19019708037376404
0.17022332549095154 -0.21028903126716614 0.016406148672103882
-0.14185068011283875 -0.15532223880290985 -0.14702843129634857
0.16585974395275116 -0.0024331447202712297 -0.07000378519296646
0.21965232491493225 0.020228954032063484 -0.08653430640697479
-0.05691325291991234 0.08618142455816269 -0.167091503739357
0.11361732333898544 0.16885775327682495 -0.010942296124994755
-0.02758592925965786 -0.15702949464321136 -0.03399340808391571
0.11634114384651184 -0.03784735128283501 0.052769627422094345
-0.20073702931404114 -0.12332083284854889 -0.130315363407135
0.21171633899211884 -0.2003980576992035 -0.1252598613500595
-0.20618434250354767 0.06139551103115082 0.06739498674869537
-0.06797053664922714 -0.20400400459766388 -0.02859540469944477
-0.14461539685726166 -0.0322413370013237 -0.05596349015831947
-0.12272201478481293 0.15032202005386353 0.08475062251091003
-0.01291611511260271 -0.04413846135139465 -0.17202244699001312
0.04533696174621582 0.0018268575659021735 0.17836767435073853
0.2063203603029251 0.13622193038463593 0.16134636104106903
-0.0018525203922763467 -0.055535830557346344 -0.009244314394891262
0.013746732845902443 0.13978658616542816 -0.1535571962594986
0.04424591362476349 0.17863550782203674 -0.1221158355474472
-0.09334016591310501 0.1505744308233261 0.0668218731880188
0.20480456948280334 0.06251684576272964 0.19770647585391998
0.14381328225135803 0.0768539160490036 -0.13640539348125458
-0.12604539096355438 0.15973307192325592 -0.07307346910238266
0.0820317417383194 -0.02843468450009823 -0.01788654550909996
-0.21534697711467743 0.14182187616825104 -0.08296223729848862
-0.07166127860546112 -0.18849515914916992 0.054835911840200424
0.1225893497467041 0.004858155269175768 -0.009807651862502098
0.11972713470458984 -0.17744188010692596 0.018004069104790688
0.10950881242752075 -0.05882460996508598 0.16549740731716156
-0.019001321867108345 -0.1690055876970291 0.20983174443244934
-0.019403677433729172 0.11122721433639526 -0.18556858599185944
0.13588979840278625 -0.15311986207962036 -0.165019229054451
-0.09836802631616592 -0.03312874957919121 -0.0064743016846477985
-0.031551286578178406 -0.20480260252952576 0.04269375279545784
0.10646208375692368 0.2106517106294632 0.02383037656545639
0.19002212584018707 0.19886508584022522 -0.12654604017734528
-0.19079282879829407 -0.14534877240657806 0.10755070298910141
-0.10517359524965286 -0.17061515152454376 0.19509051740169525
0.08077932894229889 0.20159907639026642 -0.07501570135354996
-0.13540636003017426 -0.15981294214725494 0.19508618116378784
-0.1477673202753067 0.13303494453430176 -0.12685944139957428
0.15968450903892517 -0.19506318867206573 -0.0521763414144516
-0.04315036162734032 0.2095465362071991 0.17500002682209015
-0.05084119364619255 -0.03313955292105675 0.09466398507356644
0.06165032461285591 0.17342710494995117 0.0823652595281601
0.006737223360687494 0.17630107700824738 -0.07436338812112808
-0.05832354724407196 -0.06536971032619476 -0.004614763893187046
-0.20471905171871185 -0.02072102762758732 -0.08068826794624329
-0.1129985824227333 -0.11113214492797852 0.1309194266796112
-0.05033992975950241 0.21152730286121368 -0.0383891835808754
0.08699124306440353 -0.08563601970672607 0.14365819096565247
-0.12624922394752502 -0.09891769289970398 -0.09129192680120468
-0.1630832999944687 0.11026202887296677 -0.030133070424199104
-0.16458411514759064 0.015934016555547714 -0.005138222593814135
0.002310275100171566 0.09349983185529709 -0.19072607159614563
-0.003545509884133935 -0.19729402661323547 0.20948044955730438
0.07035566866397858 -0.14555847644805908 0.18460790812969208
-0.14300484955310822 -0.06398090720176697 -0.19910529255867004
-0.056643638759851456 0.10181993991136551 -0.16637712717056274
0.12187320739030838 -0.03208383545279503 0.13302427530288696
-0.14347194135189056 0.17703256011009216 0.09999541938304901
-0.19878266751766205 -0.009130683727562428 -0.19116632640361786
0.09788229316473007 -0.06016488000750542 0.12062767148017883
0.1683150976896286 -0.14239944517612457 0.1365651786327362
-0.05026444047689438 -0.0517968125641346 0.06790255755186081
0.20861579477787018 0.0802946612238884 -0.12273150682449341
-0.2198076844215393 -0.17098674178123474 -0.09033691138029099
-0.1896706223487854 -0.1908247470855713 0.19639058411121368
-0.1532648205757141 -0.07307345420122147 0.20496393740177155
0.01482681930065155 0.08478088676929474 -0.09345746040344238
0.07306645810604095 -0.14825527369976044 -0.06772071123123169
0.17890912294387817 0.10100293159484863 -0.016621766611933708
-0.018528545275330544 0.10660741478204727 -0.04494508355855942
-0.029699698090553284 0.029792601242661476 0.0262895580381155
-0.01740734651684761 0.04597815126180649 -0.15405915677547455
0.10511892288923264 -0.14847610890865326 0.13578137755393982
0.03199012577533722 0.19176077842712402 -0.03636329248547554
0.06968290358781815 -0.18767757713794708 -0.0864906758069992
-0.14862698316574097 0.07413477450609207 -0.16671831905841827
-0.0006648542475886643 -0.1088242456316948 -0.14615222811698914
0.13787271082401276 -0.1127181276679039 -0.18485617637634277
-0.04733440652489662 -0.12728425860404968 0.0941682681441307
0.05222734808921814 0.19753395020961761 0.15459060668945312
-0.08531419187784195 0.15883193910121918 -0.10868467390537262
0.15551841259002686 -0.1561994105577469 0.1885955035686493
0.028356710448861122 -0.018717462196946144 -0.04270368441939354
-0.053912241011857986 -0.1508180797100067 0.05773019418120384
-0.06342366337776184 0.16739147901535034 -0.16558663547039032
-0.014088203199207783 0.03755617141723633 0.10074804723262787
0.06829652935266495 -0.032325830310583115 0.10187723487615585
0.09239763021469116 -0.05210600420832634 -0.031673580408096313
-0.06401769816875458 0.12211427837610245 -0.1570887267589569
0.1388281285762787 0.03877498582005501 -0.0566956028342247
0.19466117024421692 0.20143716037273407 0.20618627965450287
-0.1756032258272171 -0.004152943845838308 0.1851705014705658
-0.21609878540039062 -0.08801689743995667 -0.017817426472902298
-0.09766033291816711 0.03146776184439659 0.015931829810142517
0.15140670537948608 -0.114608034491539 0.11267460882663727
-0.0028556252364069223 0.2047193944454193 0.15764722228050232
-0.2109527438879013 -0.04419312998652458 -0.10777813196182251
[...]
POINT_DATA 498
SCALARS solution float 1
LOOKUP_TABLE default
-0.06542495638132095
-0.030459009110927582
-0.03723405301570892
0.2805650234222412
-0.13005347549915314
0.17543144524097443
-0.2088233232498169
-0.2413051426410675
-0.09419303387403488
-0.29792964458465576
0.38342493772506714
0.43967974185943604
0.21224895119667053
-0.05766036733984947
-0.006791787687689066
-0.24110859632492065
-0.25942492485046387
-0.28373533487319946
-0.26487064361572266
-0.12642744183540344
-0.29297587275505066
-0.2780950665473938
0.0346178337931633
-0.12410280853509903
0.01891714707016945
-0.17263123393058777
0.13082997500896454
-0.1902516931295395
-0.04485836997628212
-0.17931775748729706
-0.18203656375408173
0.13184933364391327
-0.0888282060623169
-0.30038678646087646
0.010253998450934887
-0.1486050933599472
-0.36567798256874084
0.35557329654693604
-0.18480084836483002
0.12894780933856964
-0.18755894899368286
-0.2456842064857483
-0.022551661357283592
0.30856651067733765
0.06221950799226761
0.1282811313867569
0.17133045196533203
0.11136983335018158
-0.14467865228652954
-0.18133486807346344
0.2803020775318146
-0.15701892971992493
-0.4122655987739563
0.4996453821659088
0.22896631062030792
0.18559986352920532
0.4932067096233368
0.1680583953857422
-0.4324333965778351
-0.020490871742367744
-0.44931745529174805
0.09606481343507767
0.1535969078540802
-0.1376418024301529
0.2689111828804016
-0.21504947543144226
0.12544934451580048
-0.45327427983283997
-0.1117226779460907
-0.07324109971523285
-0.29688215255737305
-0.23889696598052979
0.10149738937616348
-0.23611092567443848
0.22283966839313507
0.503140389919281
-0.08001250773668289
-0.009545727632939816
0.10408557206392288
0.13722649216651917
0.4675094187259674
0.08902294188737869
-0.041276589035987854
0.02109345979988575
-0.1580071896314621
-0.19223274290561676
0.12126844376325607
-0.035314980894327164
0.22386786341667175
0.018989067524671555
-0.09284862130880356
-0.1921272724866867
-0.12560878694057465
-0.18733295798301697
0.33999842405319214
0.2617039382457733
-0.22814826667308807
-0.07608553767204285
0.20480526983737946
-0.09856122732162476
-0.1403072625398636
-0.08671510219573975
0.34055420756340027
0.013378388248383999
0.3158796429634094
0.11361357569694519
-0.11408691853284836
-0.3101746141910553
-0.08001795411109924
0.12333160638809204
0.1412518173456192
-0.31028541922569275
-0.08823619782924652
-0.1478012502193451
-0.09304142743349075
0.008819456212222576
0.10351443290710449
-0.3997105658054352
-0.1119338721036911
0.23078061640262604
0.1335822343826294
-0.40432605147361755
0.14781910181045532
0.16967816650867462
-0.04331623390316963
0.17273230850696564
-0.4814091920852661
-0.18308812379837036
-0.011840825900435448
0.004478584509342909
-0.16104470193386078
0.27307599782943726
0.04599764570593834
0.02026725746691227
-0.14659680426120758
0.09271756559610367
0.1977972686290741
-0.19943787157535553
-0.24855954945087433
-0.24891534447669983
-0.16399142146110535
-0.10255315154790878
0.40800830721855164
-0.01787383295595646
0.191959410905838
-0.02733233943581581
-0.15172871947288513
-0.07111027091741562
0.12922507524490356
0.13744981586933136
0.004752469249069691
-0.10213780403137207
0.11246754229068756
0.6022916436195374
0.01019602082669735
-0.3239268362522125
-0.060111191123723984
0.154337078332901
0.3562455177307129
-0.3637377619743347
0.24958138167858124
-0.2168734222650528
0.2181607335805893
-0.19411559402942657
-0.18674172461032867
-0.07553017139434814
0.07624459266662598
-0.13003067672252655
0.2270551323890686
-0.14175288379192352
0.4095957279205322
-0.033268410712480545
-0.070452481508255
-0.3845028281211853
0.11666156351566315
0.08119554817676544
-0.3106798529624939
0.18319366872310638
-0.07126694917678833
-0.11543048918247223
0.019738441333174706
-0.1124880462884903
0.09656517952680588
0.11419950425624847
-0.16587768495082855
0.10762733966112137
0.1515723615884781
-0.029817063361406326
0.03891878202557564
0.043194256722927094
-0.04535548761487007
-0.2820409834384918
0.013442079536616802
-0.09972777217626572
-0.05453582480549812
-0.2920473515987396
-0.12428450584411621
-0.18528620898723602
-0.15650498867034912
-0.034902069717645645
0.3964218497276306
-0.15635232627391815
-0.24759115278720856
0.2689480185508728
-0.22374260425567627
-0.08456934988498688
-0.07567586749792099
0.38952532410621643
0.1935967653989792
-0.1500939428806305
-0.250217467546463
0.12135356664657593
-0.23432673513889313
-0.14177988469600677
0.058256443589925766
-0.06349840760231018
-0.06667053699493408
0.3836655020713806
0.09599663317203522
-0.03143221512436867
-0.10761208087205887
-0.38013505935668945
0.00023622304433956742
0.10702107846736908
-0.3835872411727905
0.06078748032450676
-0.2624864876270294
0.17429444193840027
0.19144243001937866
0.01602425053715706
-0.3165859878063202
0.3512539565563202
0.2863123416900635
-0.07207643985748291
0.04916485399007797
0.060149259865283966
0.009148340672254562
0.4224664568901062
0.12992732226848602
-0.4410192370414734
0.057028599083423615
-0.29386380314826965
-0.2596554458141327
-0.07481993734836578
-0.33364832401275635
0.15773633122444153
0.4186776280403137
0.02082526683807373
0.08891751617193222
-0.23536983132362366
-0.10206202417612076
-0.06291870027780533
-0.046703461557626724
0.2179829180240631
0.14988012611865997
0.01845984347164631
0.2925518751144409
0.18327035009860992
-0.0647273063659668
0.006109336391091347
-0.03739504888653755
0.12781259417533875
-0.13487718999385834
-0.1955946534872055
0.16965389251708984
0.054963257163763046
0.17312252521514893
-0.4641087055206299
-0.11179672926664352
0.3451318144798279
0.287919819355011
-0.16496723890304565
-0.13906808197498322
-0.03559206426143646
0.07891512662172318
-0.4396306574344635
0.04060382395982742
-0.05446207895874977
-0.08813367038965225
-0.11585839837789536
0.20980575680732727
0.1716364026069641
0.3608563542366028
-0.16711948812007904
0.20106816291809082
0.12001252174377441
-0.00294410134665668
-0.33954083919525146
0.1526893824338913
-0.3892344832420349
0.08728688210248947
0.18600071966648102
0.14282359182834625
-0.08313969522714615
0.36743292212486267
-0.09221949428319931
-0.021051589399576187
0.0040966118685901165
-0.09032098203897476
-0.1081109568476677
0.20216433703899384
-0.2292007952928543
0.03893643990159035
-0.2516518235206604
-0.2110452502965927
-0.13582275807857513
-0.015578018501400948
0.10263130813837051
0.04360286891460419
-0.25789475440979004
-0.18953292071819305
-0.0032647952903062105
-0.19559480249881744
-0.28442811965942383
-0.17707036435604095
-0.049160853028297424
0.1685619056224823
-0.12719424068927765
0.25907936692237854
-0.10956191271543503
0.06597980111837387
0.29430150985717773
0.32175561785697937
0.2772837281227112
0.27604445815086365
-0.07806497812271118
-0.07658704370260239
0.2623373866081238
0.16495272517204285
0.05809309333562851
0.1292956918478012
-0.21501846611499786
0.051827482879161835
-0.44486162066459656
-0.3551328778266907
-0.35758447647094727
0.06933636218309402
-0.2341378629207611
0.10960640758275986
-0.09635145217180252
-0.0017925729043781757
-0.18821848928928375
-0.35906505584716797
-0.3430100977420807
-0.15847541391849518
0.3218064606189728
-0.0857091024518013
0.08406706899404526
0.08724555373191833
0.12902919948101044
-0.13594001531600952
0.1612457036972046
-0.07012331485748291
0.1416519731283188
0.012991047464311123
0.020298270508646965
-0.030200183391571045
-0.17892684042453766
-0.29873356223106384
0.18112415075302124
0.05002254620194435
0.03492330387234688
-0.08905316144227982
0.10411596298217773
-0.19612710177898407
-0.19909131526947021
0.12927688658237457
-0.02791634202003479
-0.28226780891418457
0.0013907060492783785
0.4279002547264099
0.2684468626976013
-0.37590280175209045
-0.43518131971359253
-0.015508076176047325
-0.0013359561562538147
-0.231766477227211
0.010858217254281044
0.20166616141796112
0.06337042897939682
0.23301970958709717
0.18165668845176697
0.005550991743803024
0.3877105712890625
-0.4516738951206207
-0.07304578274488449
0.057848818600177765
-0.18546976149082184
-0.13748383522033691
0.1599774807691574
-0.008410057052969933
-0.04518373683094978
-0.16548125445842743
-0.162148118019104
0.29755112528800964
-0.07370571047067642
-0.046669185161590576
0.1291235238313675
-0.020642710849642754
0.2395031601190567
-0.09038066864013672
0.35919538140296936
-0.28729844093322754
-0.4521936774253845
-0.13576838374137878
-0.25927242636680603
-0.2942151427268982
0.2246926724910736
0.04508804902434349
0.23570843040943146
-0.2891490161418915
-0.0887850970029831
0.1803666353225708
0.272367000579834
-0.06134466454386711
0.10731025040149689
-0.3811448812484741
-0.011621867306530476
0.1395113170146942
0.03761489689350128
0.16933158040046692
0.04622654989361763
-0.033112555742263794
-0.26495712995529175
-0.17625412344932556
0.271821528673172
-0.21306423842906952
0.17809997498989105
-0.23216639459133148
0.2506175637245178
-0.09897475689649582
-0.2735603451728821
0.16548708081245422
-0.3400607407093048
0.19460836052894592
-0.19991563260555267
-0.03185887634754181
0.061097852885723114
-0.17805670201778412
-0.2994436025619507
0.23418410122394562
-0.04714462533593178
0.42450952529907227
-0.10601868480443954
0.3503355383872986
-0.17063097655773163
-0.46746209263801575
-0.09783793985843658
0.15836966037750244
-0.09557493031024933
-0.4148818850517273
-0.3862270712852478
0.26163601875305176
0.3290039002895355
0.05504501610994339
-0.20534592866897583
-0.018874699249863625
-0.2829355299472809
-0.29171666502952576
-0.13542385399341583
-0.14174588024616241
-0.06727737188339233
0.26642271876335144
-0.1148194819688797
-0.008990761823952198
0.012510860338807106
0.04581662639975548
0.10064756870269775
-0.10735177248716354
0.13189435005187988
-0.003371231257915497
-0.08449742943048477
-0.08235935121774673
0.2972448170185089
0.038050416857004166
0.040626272559165955
0.11143271625041962
-0.21170613169670105
0.010714937932789326
0.03812098503112793
0.0745917335152626
-0.517694890499115
0.37476029992103577
-0.08643314242362976
-0.10466878116130829
-0.2621481716632843
0.13201460242271423
0.33472198247909546
0.1774221658706665
0.07194062322378159
-0.15883956849575043
0.20517194271087646
-0.27189552783966064
0.02023792266845703
0.13206592202186584
0.28359928727149963
-0.2419976443052292
0.25895044207572937
SCALARS exact float 1
LOOKUP_TABLE default
-0.06975767016410828
-0.04392160847783089
-0.018568456172943115
0.2811290845274925
-0.12981096655130386
0.18057875335216522
-0.20431061834096909
-0.2353168735280633
-0.09878360480070114
-0.2993311807513237
0.3908746689558029
0.4464550092816353
0.21069263317622244
-0.048140041530132294
-0.00377558171749115
-0.24018359184265137
-0.2569557763636112
-0.2810530886054039
-0.265989875420928
-0.14580243453383446
-0.2939795106649399
-0.23965926421806216
0.035364817013032734
-0.1229420155286789
0.031154979020357132
-0.1783299297094345
0.12740277498960495
-0.17276091128587723
-0.05075855925679207
-0.17139647901058197
-0.18050746619701385
0.12908351980149746
-0.08788831532001495
-0.30029700323939323
0.01576361618936062
-0.12860598880797625
-0.37402936071157455
0.3574491059407592
-0.19066937267780304
0.13741125166416168
-0.19515372067689896
-0.24291170435026288
-0.02237500110641122
0.32047787588089705
0.06641644239425659
0.1282309889793396
0.1717539280653
0.11156756058335304
-0.14839739352464676
-0.18133872747421265
0.27343455888330936
-0.1633905479684472
-0.40169476717710495
0.498768575489521
0.208142327144742
0.1916036456823349
0.4941030815243721
0.16617207298986614
-0.44061096012592316
-0.023659557104110718
-0.44420135021209717
0.09342281403951347
0.15334697254002094
-0.13782333210110664
0.27153278049081564
-0.21860883198678493
0.13126341998577118
-0.45437322556972504
-0.11394158005714417
-0.07739384472370148
-0.3005699459463358
-0.23282022401690483
0.11235062777996063
-0.2290770234540105
0.22553149366285652
0.5038886517286301
-0.06663266534451395
-2.3877248167991638e-05
0.10076558589935303
0.1240561380982399
0.465027891099453
0.08426180481910706
-0.03938578814268112
0.03571051172912121
-0.156487338244915
-0.20532052591443062
0.11763985315337777
-0.03971067629754543
0.21618160977959633
0.021824834868311882
-0.09374504908919334
-0.1822492927312851
-0.13797107758000493
-0.19366013631224632
0.34094417095184326
0.262341171503067
-0.22859089821577072
-0.08069822937250137
0.20736270397901535
-0.10013312101364136
-0.14159181714057922
-0.08755502104759216
0.34139620140194893
0.010683238506317139
0.3174426890909672
0.10867491224780679
-0.12830802146345377
-0.30612834729254246
-0.09321130067110062
0.12279818952083588
0.14501341432332993
-0.3164588436484337
-0.08295434154570103
-0.15378832118585706
-0.09491596464067698
0.008640913059934974
0.10940510034561157
-0.4060910493135452
-0.12120082601904869
0.22281364724040031
0.1335560381412506
-0.39907967764884233
0.1583450846374035
0.16248083114624023
-0.03415869548916817
0.16617894917726517
-0.48113133758306503
-0.184104785323143
-0.021374337375164032
0.006150245666503906
-0.14290952682495117
0.2632902879267931
0.04313378594815731
0.026382461190223694
-0.12548835203051567
0.0924241915345192
0.1873876117169857
-0.20448534935712814
-0.24121052771806717
-0.2556413279962726
-0.15970159322023392
-0.0804503969848156
0.4043519049882889
-0.03516692668199539
0.18791450560092926
-0.03306443616747856
-0.14700012654066086
-0.06161881983280182
0.12421601545065641
0.1378479339182377
0.008618045598268509
-0.09899214655160904
0.120907511562109
0.6022846102714539
0.0054143317975103855
-0.3219331093132496
-0.050260741263628006
0.14947327971458435
0.3595109914895147
-0.3629240058362484
0.24793783342465758
-0.21241532266139984
0.22505608201026917
-0.20167535543441772
-0.18583061546087265
-0.0673554316163063
0.07688531279563904
-0.12967312335968018
0.22624731808900833
-0.14166786521673203
0.4095072951167822
-0.020952943712472916
-0.07223725598305464
-0.3857494071125984
0.12930651754140854
0.06972095370292664
-0.31789861246943474
0.19241610169410706
-0.08453434705734253
-0.11500699445605278
0.02238171175122261
-0.10617488948628306
0.09696868807077408
0.1135936826467514
-0.16306176781654358
0.10525583475828171
0.1556178443133831
-0.013237005099654198
0.03313836827874184
0.04778314381837845
-0.04254070669412613
-0.3223733529448509
0.014549663290381432
-0.08495917543768883
-0.05788448266685009
-0.3154156133532524
-0.11574733257293701
-0.18056590668857098
-0.15189217031002045
-0.03713381290435791
0.3917316049337387
-0.16041695326566696
-0.24976735888049006
0.27516020461916924
-0.219603031873703
-0.08416936546564102
-0.06972770392894745
0.38037214428186417
0.19427776709198952
-0.15940473228693008
-0.27643660828471184
0.1241542249917984
-0.2341843731701374
-0.14159412682056427
0.0845791632309556
-0.06625867262482643
-0.06661874614655972
0.3784434460103512
0.0941972117871046
-0.031028814613819122
-0.10510723851621151
-0.37928114645183086
-0.0011172182857990265
0.11661477014422417
-0.3846767693758011
0.07245620340108871
-0.2706192098557949
0.17375355144031346
0.19296947866678238
0.02987070381641388
-0.3267810717225075
0.36229119542986155
0.29118378460407257
-0.07763076573610306
0.06059969961643219
0.05682657565921545
0.020029140636324883
0.4155588373541832
0.1311018243432045
-0.43831951916217804
0.045464977622032166
-0.31317242980003357
-0.25125332921743393
-0.07209997624158859
-0.3322574570775032
0.16364380717277527
0.4136030450463295
0.01946396753191948
0.09051791951060295
-0.2354915775358677
-0.10389627143740654
-0.05041089188307524
-0.04217364452779293
0.19638662785291672
0.159771166741848
0.012823786586523056
0.2856321893632412
0.17621473968029022
-0.051323797553777695
0.02534853294491768
-0.03287110477685928
0.12515228986740112
-0.14093776047229767
-0.1947532519698143
0.18456449382938445
0.041676461696624756
0.16809727624058723
-0.46641969680786133
-0.10937041789293289
0.3424499789252877
0.29750516824424267
-0.17082813009619713
-0.1358334869146347
-0.039966560900211334
0.08467431366443634
-0.4386509209871292
0.03976555913686752
-0.07672471180558205
-0.10770893469452858
-0.14442399516701698
0.21329323016107082
0.17220942676067352
0.367298386991024
-0.17585881054401398
0.19981949403882027
0.12564731389284134
0.009405843913555145
-0.3328138440847397
0.1482612006366253
-0.38733532279729843
0.08985238522291183
0.19833954423666
0.14765622559934855
-0.08685371279716492
0.36542678996920586
-0.10319963470101357
-0.005373107269406319
0.0013004111824557185
-0.08788136020302773
-0.10981824994087219
0.2015164066106081
-0.22601045295596123
0.04330662079155445
-0.2502620741724968
-0.21409888565540314
-0.13729172199964523
-0.020818342454731464
0.10444417968392372
0.04091522470116615
-0.2658069506287575
-0.18093044310808182
0.0062362030148506165
-0.19932279735803604
-0.2991192974150181
-0.18344053626060486
-0.04307631030678749
0.1706963906181045
-0.11842231918126345
0.24481962248682976
-0.12003256008028984
0.053469814360141754
0.3124718628823757
0.32608348317444324
0.28077426366508007
0.2753812149167061
-0.07941188290715218
-0.060663752257823944
0.2628008279716596
0.16391974687576294
0.0551145076751709
0.12135992012917995
-0.21371712069958448
0.0454881452023983
-0.44263756275177
-0.3468818739056587
-0.36076299101114273
0.07283970713615417
-0.23389288038015366
0.12571562267839909
-0.11350806802511215
-0.015163963660597801
-0.1856181100010872
-0.36146805388852954
-0.3495904952287674
-0.14884988218545914
0.30549514293670654
-0.08691154047846794
0.0730540081858635
0.10420136898756027
0.12125665694475174
-0.13605285435914993
0.16798748075962067
-0.06813148874789476
0.1375105946790427
0.013840656727552414
0.007570698857307434
-0.046701859682798386
-0.15404538623988628
-0.31360839679837227
0.18381081521511078
0.0600135438144207
0.03715864568948746
-0.0797521355561912
0.09867779538035393
-0.19525963347405195
-0.1997300200164318
0.1368582844734192
-0.036685697734355927
-0.2822919376194477
0.0073022134602069855
0.4327414557337761
0.2735360721126199
-0.3708618991076946
-0.42597342282533646
-0.018078088760375977
-0.0014579035341739655
-0.22451765346340835
0.0202725762501359
0.20368513464927673
0.0577632337808609
0.24053534865379333
0.18203662568703294
0.008867889642715454
0.3780944421887398
-0.4399288222193718
-0.0933408085256815
0.055895961821079254
-0.19194676540791988
-0.13921283185482025
0.1638074666261673
-0.016493812203407288
-0.04281384125351906
-0.16181926056742668
-0.16685444116592407
0.2916683368384838
-0.08748348010703921
-0.04301460273563862
0.13029180467128754
-0.01976049318909645
0.24374431371688843
-0.08837143331766129
0.3606414571404457
-0.2886198488995433
-0.4355044513940811
-0.13718966767191887
-0.2565726786851883
-0.2799866758286953
0.224823959171772
0.056133612990379333
0.21001668088138103
-0.2939084731042385
-0.09033334255218506
0.18551942706108093
0.2765673976391554
-0.06570439040660858
0.09927122667431831
-0.37835919111967087
0.003708226140588522
0.14749330841004848
0.03278013304225169
0.17085345089435577
0.046680841594934464
-0.024701148737221956
-0.26139384135603905
-0.18767089396715164
0.2657702751457691
-0.21021772921085358
0.17827507853507996
-0.2391848135739565
0.26097493758425117
-0.0993191811721772
-0.2866615578532219
0.16317220032215118
-0.361919105052948
0.18743448331952095
-0.2140648104250431
-0.027429496869444847
0.05555862933397293
-0.18180595338344574
-0.3029838176444173
0.23515453934669495
-0.0420776829123497
0.42247652262449265
-0.10460768081247807
0.35508451610803604
-0.16726520657539368
-0.46241267397999763
-0.09683022648096085
0.1460659708827734
-0.10629309341311455
-0.4134475067257881
-0.38886567670851946
0.25828738138079643
0.3225547217298299
0.0641601849347353
-0.21362674236297607
-0.02109522372484207
-0.2755560949444771
-0.2852697568014264
-0.14187365770339966
-0.11859381385147572
-0.06502894684672356
0.25590740144252777
-0.11128741502761841
-0.024848852306604385
0.01621249585878104
0.04215133935213089
0.09282373636960983
-0.12203723937273026
0.1297534815967083
-0.001073447521775961
-0.08475193381309509
-0.09667761065065861
0.29491490218788385
0.03521018847823143
0.04227210581302643
0.1246243268251419
-0.2213096171617508