# vtk DataFile Version 3.0
WoSt Poisson solution ã?structured grid
ASCII
DATASET STRUCTURED_POINTS
DIMENSIONS 16 16 16
ORIGIN -0.22 -0.22 -0.22
SPACING 0.029333333 0.029333333 0.029333333
POINT_DATA 4096
SCALARS solution float 1
LOOKUP_TABLE default
-0.65999997
-0.63066661
-0.60133338
-0.57200003
-0.54266667
-0.51333332
-0.484
-0.45466667
-0.42533332
-0.396
-0.36666667
-0.33733335
-0.308
-0.27866668
-0.24933335
-0.22
-0.63066661
-0.60133332
-0.57200003
-0.54266667
-0.51333332
-0.484
-0.45466667
-0.42533332
-0.396
-0.36666667
-0.33733332
-0.30800003
-0.27866668
-0.24933334
-0.22000001
-0.19066666
-0.60133338
-0.57200003
-0.54266667
-0.51333332
-0.484
-0.45466667
-0.42533332
-0.39600003
-0.36666667
-0.33733332
-0.30800003
-0.27866668
-0.24933334
-0.22000001
-0.19066669
-0.16133334
-0.57200003
-0.54266667
-0.51333332
-0.484
-0.45466667
-0.42533332
-0.396
-0.36666667
-0.33733332
-0.308
-0.27866668
-0.24933335
-0.22
-0.19066668
-0.16133335
-0.132
-0.54266667
-0.51333332
-0.484
-0.45466667
-0.42533332
-0.396
-0.36666667
-0.33733335
-0.308
-0.27866668
-0.24933335
-0.22000003
-0.19066668
-0.16133335
-0.13200003
-0.10266667
-0.51333332
-0.484
nan
-0.42533332
-0.396
-0.36666667
-0.33733332
-0.30800003
-0.27866668
-0.24933334
-0.22000001
-0.19066669
-0.16133334
-0.13200001
-0.10266669
-0.073333338
-0.484
-0.45466667
-0.42533332
-0.396
-0.36666667
-0.33733332
-0.308
-0.27866668
-0.24933334
-0.22
-0.19066668
-0.16133335
-0.132
-0.10266668
-0.073333353
-0.044
-0.45466667
-0.42533332
-0.39600003
-0.36666667
-0.33733335
-0.30800003
-0.27866668
-0.24933335
-0.22000001
-0.19066668
-0.16133335
-0.13200003
-0.10266668
-0.073333353
-0.04400003
-0.014666677
-0.42533332
-0.396
-0.36666667
-0.33733332
-0.308
-0.27866668
-0.24933334
-0.22000001
-0.19066668
-0.16133334
-0.13200001
-0.10266669
-0.073333338
-0.044000015
-0.014666691
0.014666662
-0.396
-0.36666667
-0.33733332
-0.308
-0.27866668
-0.24933334
-0.22
-0.19066668
-0.16133334
-0.132
-0.10266668
-0.073333353
-0.044
-0.014666677
0.014666647
0.044
-0.36666667
-0.33733332
-0.30800003
-0.27866668
-0.24933335
-0.22000001
-0.19066668
-0.16133335
-0.13200001
-0.10266668
-0.073333353
-0.04400003
-0.014666677
0.014666647
0.04399997
0.073333323
-0.33733335
-0.30800003
-0.27866668
-0.24933335
-0.22000003
-0.19066669
-0.16133335
-0.13200003
-0.10266669
-0.073333353
-0.04400003
-0.014666706
0.014666647
0.04399997
0.073333293
0.10266665
-0.308
-0.27866668
-0.24933334
-0.22
-0.19066668
-0.16133334
-0.132
-0.10266668
-0.073333338
-0.044
-0.014666677
0.014666647
0.044
0.073333323
0.10266665
0.132
-0.27866668
-0.24933334
-0.22000001
-0.19066668
-0.16133335
-0.13200001
-0.10266668
-0.073333353
-0.044000015
-0.014666677
0.014666647
0.04399997
0.073333323
0.10266665
0.13199997
0.16133332
-0.24933335
-0.22000001
-0.19066669
-0.16133335
-0.13200003
-0.10266669
-0.073333353
-0.04400003
-0.014666691
0.014666647
0.04399997
0.073333293
0.10266665
0.13199997
0.16133329
0.19066665
-0.22
-0.19066666
-0.16133334
-0.132
-0.10266667
-0.073333338
-0.044
-0.014666677
0.014666662
0.044
0.073333323
0.10266665
0.132
0.16133332
0.19066665
0.22
-0.63066667
-0.60133332
-0.57200003
-0.54266667
-0.51333332
-0.48400003
-0.45466667
-0.42533332
-0.396
-0.36666667
-0.33733332
-0.30800003
-0.27866668
-0.24933334
-0.22000001
-0.19066666
-0.60133332
-0.57252181
-0.53988951
-0.50825441
-0.48584944
-0.45439482
-0.42738688
-0.39606163
-0.36505419
-0.33138624
-0.30622575
-0.27432272
-0.25133407
-0.21990685
-0.19294012
-0.16133332
-0.57200003
-0.54304528
-0.51561624
-0.47990957
-0.45495743
-0.42345929
-0.3914791
-0.36237851
-0.33378866
-0.31266356
-0.27895835
-0.24486299
-0.2269823
-0.19162661
-0.16072534
-0.132
-0.54266667
-0.51451409
-0.48221213
-0.45813739
-0.42397064
-0.40063164
-0.36568338
-0.33981529
-0.30848143
-0.28498822
-0.25061393
-0.21866669
-0.19094703
-0.16043755
-0.13297254
-0.10266666
-0.51333332
-0.48385704
-0.45271391
-0.41767478
-0.39616996
-0.36430529
-0.33749062
-0.31232709
-0.28441504
-0.25092652
-0.22167078
-0.19616285
-0.16328456
-0.1319973
-0.10449828
-0.07333333
-0.48400003
-0.45839685
-0.41974771
-0.39542812
-0.3716279
-0.33383265
-0.30876786
-0.28162113
-0.25512576
-0.22924784
-0.19346398
-0.15896003
-0.13815366
-0.10382783
-0.072735891
-0.044
-0.45466667
-0.42384863
-0.39843902
-0.36655727
-0.3379415
-0.30944291
-0.27578509
-0.24626096
-0.22132716
-0.1949138
-0.16425815
-0.13594668
-0.10491201
-0.071389019
-0.041688431
-0.014666662
-0.42533332
-0.39751795
-0.36681342
-0.34207213
-0.30837721
-0.27397746
-0.25451657
-0.21544391
-0.19415027
-0.15548456
-0.13299058
-0.11058264
nan
-0.039610993
-0.015003484
0.014666662
-0.396
-0.36036572
-0.34053609
-0.30910042
-0.27757058
-0.24676569
-0.22410855
-0.19519944
-0.15837669
-0.13425289
-0.099009626
-0.077443175
-0.045387149
-0.014651355
0.014347006
0.044
-0.36666667
-0.33588147
-0.30829853
-0.2791909
-0.24612477
-0.22094989
-0.18471962
-0.15777144
-0.13872086
-0.10636324
-0.072269373
-0.0473946
-0.019514989
0.013768226
0.041554723
0.073333338
-0.33733332
-0.30904481
-0.28310731
-0.25180367
-0.21542025
-0.18380603
-0.16207105
-0.14235874
-0.10553856
-0.066560559
-0.038536858
-0.019231334
0.0097860983
0.050818093
0.073517136
0.10266666
-0.30800003
-0.27647334
-0.25295401
-0.21422264
-0.18755499
-0.16058849
-0.13354783
-0.10346442
-0.067531876
-0.04234663
-0.02086281
nan
0.04769269
0.073605917
0.10768051
0.13199998
-0.27866668
-0.25086087
-0.22063234
-0.1905663
-0.15817128
-0.1292879
-0.10733319
-0.06487193
-0.048741642
-0.01522069
0.0092747509
0.039030138
0.072118245
0.10409981
0.13083057
0.16133334
-0.24933334
-0.21573937
-0.18704183
-0.1633651
-0.13029189
-0.10707184
-0.076533578
-0.046358887
-0.013252356
0.013827134
0.051056337
0.076277055
0.099649206
0.13318153
0.1603249
0.19066666
-0.22000001
-0.19138952
-0.16052575
-0.1362786
-0.10765601
-0.071816862
-0.04252525
-0.014250685
0.017715588
0.046467699
0.073126301
0.099223703
0.1325738
0.16189191
0.1930685
0.21999998
-0.19066666
-0.16133332
-0.132
-0.10266666
-0.07333333
-0.044
-0.014666662
0.014666662
0.044
0.073333338
0.10266666
0.13199998
0.16133334
0.19066666
0.21999998
0.24933334
-0.60133332
-0.57199997
-0.54266667
-0.51333332
-0.48400003
-0.45466667
-0.42533332
-0.39600003
-0.36666667
-0.33733332
-0.30800003
-0.27866668
-0.24933334
-0.22000001
-0.19066669
-0.16133334
-0.57199997
-0.54152459
-0.51803464
-0.48310491
-0.45366549
-0.42458886
-0.38895312
-0.36700696
-0.33071819
-0.30214307
-0.27732044
-0.2461386
-0.22223569
-0.19478485
-0.15931426
-0.132
-0.54266667
-0.51231307
-0.48643649
-0.4566929
-0.4253872
-0.39181003
-0.36358187
-0.34024709
-0.30446079
-0.27947855
-0.24902818
-0.21640764
-0.19495614
-0.1586066
-0.13461097
-0.10266668
-0.51333332
-0.47758961
-0.45386449
-0.42194003
-0.40127265
-0.36183134
-0.32695052
-0.313416
-0.28040779
-0.25194037
-0.22260684
-0.18588372
-0.16155256
-0.12552196
-0.10640152
-0.073333338
-0.48400003
-0.4594627
-0.43217689
-0.39727482
-0.36715543
-0.34269297
-0.3097294
-0.27520481
-0.25090677
-0.21885291
-0.18721038
-0.16062154
-0.13466378
-0.10144934
-0.074787401
-0.044000007
-0.45466667
-0.42811748
-0.39766315
-0.36899263
-0.34144935
-0.30390495
-0.28024283
-0.25242823
-0.22022323
-0.18828325
-0.15473558
-0.12464108
-0.09877263
-0.075848997
-0.039810162
-0.014666677
-0.42533332
-0.39644834
-0.37445459
-0.34818351
-0.30582732
-0.27598345
-0.24743366
-0.22247386
-0.19453542
-0.16333014
-0.13258457
-0.10467583
-0.073203921
-0.046880063
-0.017761886
0.014666662
-0.39600003
-0.3635928
-0.33707914
-0.30760145
-0.27762982
-0.24573885
-0.21745086
-0.19143322
-0.16424184
-0.12802975
-0.10633279
-0.069628276
-0.04328458
-0.010663249
0.022890477
0.043999985
-0.36666667
-0.3379744
-0.30866563
-0.2803449
-0.26331267
-0.21873578
-0.20152634
-0.15984234
-0.13547146
-0.10327429
-0.066222899
-0.034613516
-0.013608004
0.0030173645
0.043622885
0.073333323
-0.33733332
nan
-0.28261563
-0.2468098
-0.22285867
-0.19558877
-0.17953651
-0.13260749
-0.095992759
-0.069158889
-0.037976332
-0.023294589
0.013385116
0.043005642
0.073323689
0.10266666
nan
-0.28129923
-0.24627709
-0.21699989
-0.18571959
-0.15764894
-0.13095783
-0.097118281
-0.061559033
-0.035831273
-0.0091261743
0.020698274
0.044126522
0.0689843
0.10424782
0.13199998
-0.27866668
-0.25221103
-0.21110266
-0.18980908
-0.16305968
-0.13592991
-0.10782927
-0.075864837
-0.048683871
-0.015911032
0.013450911
0.047820468
0.07801991
0.1011173
0.1321733
0.16133331
-0.24933334
-0.22023724
-0.19595617
-0.16412257
-0.13686493
-0.10426595
-0.0754136
-0.041638508
-0.016120648
0.011649719
0.046973538
0.073314011
0.096383221
0.12815762
0.16440929
0.19066666
-0.22000001
-0.18876939
-0.16100876
-0.13520454
-0.10964353
-0.069600902
-0.050782297
-0.011942453
0.0074445219
0.050379485
0.071480706
0.10634965
0.13224708
0.16444702
0.19107379
0.21999998
-0.19066669
-0.15870109
-0.13169476
nan
-0.072521217
-0.041646149
-0.011079018
0.019234076
0.044009689
0.075423814
0.10347674
0.13272105
0.16364472
0.19387531
0.21826327
0.24933331
-0.16133334
-0.132
-0.10266668
-0.073333338
-0.044000007
-0.014666677
0.014666662
0.043999985
0.073333323
0.10266666
0.13199998
0.16133331
0.19066666
0.21999998
0.24933331
0.27866668
-0.57200003
-0.54266667
-0.51333332
-0.484
-0.45466667
-0.42533335
-0.396
-0.36666667
-0.33733332
-0.308
-0.27866668
-0.24933335
-0.22
-0.19066668
-0.16133335
-0.132
-0.54266667
-0.50808424
-0.48503175
-0.45810673
-0.42727569
-0.39973456
-0.36887577
-0.34087411
-0.31008649
-0.28038603
-0.25241831
-0.21921685
-0.18799436
-0.16164553
-0.13436618
-0.10266666
-0.51333332
-0.48737845
-0.45277002
-0.42727301
-0.40417767
-0.3615852
-0.34242389
-0.30743843
-0.27625212
-0.2423348
-0.21503802
-0.19849764
-0.15278147
-0.13041976
-0.097074732
-0.073333338
-0.484
-0.45297617
-0.42655763
-0.39756531
-0.36296907
-0.33583227
-0.30585414
-0.27841845
-0.24699113
-0.21541514
-0.18852673
-0.15166152
-0.12860624
-0.10631903
-0.069824919
-0.044
-0.45466667
-0.42745572
-0.39548737
-0.36303577
-0.34564829
-0.31013873
-0.27525842
-0.24581689
-0.21709593
-0.19187778
-0.15901676
-0.12459265
-0.10333468
-0.071556792
-0.046009138
-0.014666669
-0.42533335
-0.39527556
-0.3741636
-0.34573609
-0.30548751
-0.28652155
-0.24469884
-0.22269943
-0.18548423
-0.15578622
-0.13245019
-0.10923103
-0.075823039
-0.04702425
-0.011684403
0.014666662
-0.396
-0.36479619
-0.33996135
-0.3125363
-0.28083897
-0.24485593
-0.22085175
-0.19778198
-0.15765324
-0.12636349
-0.099612273
-0.072831467
-0.042658601
-0.019759748
0.018003529
0.044
-0.36666667
-0.34313482
-0.30581203
-0.27560762
-0.24255943
-0.22383855
-0.19724016
-0.15893912
-0.1294906
-0.1052484
-0.068489768
-0.049133781
-0.020520601
0.014803759
0.044098128
0.073333323
-0.33733332
-0.30914253
-0.28085765
-0.24837296
-0.22287087
-0.18610421
-0.15823102
-0.1265596
-0.10765353
-0.071080439
-0.036480412
-0.01015939
0.010709104
0.03782713
0.066938356
0.10266666
-0.308
-0.27932653
-0.25121567
-0.21942328
-0.20451914
-0.16477001
-0.13505431
-0.10977237
-0.073482998
-0.035010763
-0.02648952
0.021157997
0.038703375
0.074592024
0.10158347
0.132
-0.27866668
-0.24649514
-0.2182447
-0.20013972
-0.15813236
-0.12577808
-0.10547862
nan
-0.036327798
-0.011003494
0.012016941
0.034566566
0.073338546
0.10187751
0.13511106
0.16133332
-0.24933335
-0.22111206
-0.19104856
-0.15827458
-0.13884582
-0.10473659
-0.07809478
-0.044860538
-0.014854684
0.01183946
0.03780169
0.074880123
0.096898191
0.12928045
0.16303691
0.19066665
-0.22
-0.19200684
-0.16243511
-0.13699748
-0.10573842
-0.073465914
-0.044335507
-0.010820051
0.0073366035
0.051015109
0.064012662
0.10997758
0.12942746
0.16510698
0.19495077
0.22
-0.19066668
-0.16296311
-0.132884
-0.1036942
-0.071247935
-0.042712566
-0.017888332
0.013396296
0.038873106
0.075403549
0.11350167
0.13814922
0.16642451
0.18664138
0.22430384
0.24933332
-0.16133335
-0.13290466
-0.10266586
-0.076583117
-0.042488504
-0.015533029
0.018963102
0.044496506
0.068066902
0.10569106
0.13687885
0.16377592
0.19142288
0.22252031
0.24876165
0.27866665
-0.132
-0.10266666
-0.073333338
-0.044
-0.014666669
0.014666662
0.044
0.073333323
0.10266666
0.132
0.16133332
0.19066665
0.22
0.24933332
0.27866665
0.308
-0.54266667
-0.51333332
-0.48400003
-0.45466667
-0.42533335
-0.39600003
-0.36666667
-0.33733335
-0.308
-0.27866668
-0.24933335
-0.22000003
-0.19066668
-0.16133335
-0.13200003
-0.10266667
-0.51333332
-0.48253077
-0.45643753
-0.42850304
-0.38934207
-0.36048239
-0.33312881
-0.30703694
-0.27979836
-0.24588135
-0.21946602
-0.196568
-0.16753727
-0.13293514
-0.1017677
-0.07333333
-0.48400003
-0.46074006
-0.42132825
-0.39206338
-0.36493248
-0.33316293
-0.30155724
-0.27452093
-0.25288028
-0.22055511
-0.19552821
-0.16419213
-0.13636629
-0.097015932
-0.074894294
-0.044000007
-0.45466667
-0.42626312
-0.38723868
-0.37073883
-0.33500731
-0.31471682
-0.27877477
-0.25232777
-0.21754122
-0.20461395
-0.15921906
-0.13646506
-0.11206897
-0.065683529
-0.0490232
-0.014666669
-0.42533335
-0.39474991
-0.3653332
-0.32959598
-0.29997742
-0.27621213
-0.24151626
-0.20829126
-0.19336458
-0.16443427
-0.14249426
-0.10364448
-0.079320483
-0.043252621
-0.015915768
0.014666662
-0.39600003
-0.36588401
-0.34395152
-0.30271816
-0.28051665
-0.25566339
-0.21332645
-0.19036379
-0.17063677
-0.13168499
-0.10304106
-0.078741029
-0.051279157
-0.016421586
0.014749371
0.043999992
-0.36666667
-0.33455625
-0.31010291
-0.27181956
-0.26123145
-0.22588848
-0.19528718
-0.16001245
-0.14212807
-0.10096135
-0.06695345
-0.041899584
-0.01466774
0.011246575
0.042787906
0.07333333
-0.33733335
-0.30620152
-0.2783505
-0.25620955
-0.2165263
-0.1961184
-0.15628915
-0.1342566
-0.096602716
-0.079904906
-0.047480647
-0.026642529
0.022031296
0.046136111
0.066706531
0.10266665
-0.308
-0.28120664
-0.25384524
-0.22447942
-0.18869145
-0.15689869
-0.13234128
-0.11561469
-0.068917677
-0.058889695
-0.013049533
0.019368406
0.039340243
0.068082176
0.10166623
0.132
-0.27866668
-0.25095344
-0.22320114
-0.18452011
-0.16219005
-0.1285153
-0.10863431
-0.065610565
-0.051474486
-0.016413238
0.019700143
0.042344391
0.08516328
0.10058245
0.13159299
0.16133332
-0.24933335
-0.21840328
-0.19203192
-0.15491451
-0.13386846
-0.10408357
-0.069888294
-0.035613112
-0.025413537
0.015170177
0.041969851
0.07375586
0.1003494
0.1299523
0.15912558
0.19066665
-0.22000003
-0.18913545
-0.15826698
-0.12018422
-0.10516729
-0.072528832
-0.043147724
-0.0096493717
0.02183993
0.041958071
0.073242188
0.092937633
0.12732057
0.16629523
0.19057176
0.21999997
-0.19066668
-0.16066098
-0.12744972
-0.098260008
-0.072349466
-0.042381138
-0.017140219
0.016199647
0.049932364
0.072039261
0.10327072
0.12815011
0.1651195
0.18402201
0.22428386
0.24933332
-0.16133335
-0.13193853
-0.10303605
-0.071317062
-0.038784891
-0.013730359
0.0087044751
0.050187171
0.078585438
0.10859138
0.128885
0.16095924
0.1950428
0.21992217
0.24732037
0.27866665
-0.13200003
-0.10550266
-0.072363302
-0.049039517
-0.011789366
0.015557634
0.042391095
0.074230105
0.10502852
0.1249598
0.16241689
0.1922524
0.21772023
0.24970694
nan
0.30799997
-0.10266667
-0.07333333
-0.044000007
-0.014666669
0.014666662
0.043999992
0.07333333
0.10266665
0.132
0.16133332
0.19066665
0.21999997
0.24933332
0.27866665
0.30799997
0.33733332
-0.51333332
-0.48399997
-0.45466667
-0.42533332
-0.39600003
-0.36666667
-0.33733332
-0.30800003
-0.27866668
-0.24933334
-0.22000001
-0.19066669
-0.16133334
-0.13200001
-0.10266669
-0.073333338
-0.48399997
-0.45465097
-0.42568958
-0.39987251
-0.36583203
-0.33950734
-0.30427745
-0.27554885
-0.24752145
-0.22051223
-0.19246827
-0.16000901
-0.1325071
-0.10109658
-0.077082649
-0.044
-0.45466667
-0.42303857
-0.39072552
-0.36281499
-0.33283833
-0.30192631
-0.2810241
-0.25664827
-0.21458675
-0.19616799
-0.15725623
-0.13027257
-0.097055696
-0.064449333
-0.042075876
-0.014666677
-0.42533332
-0.3884002
-0.37508336
-0.34224212
-0.3069157
-0.27883178
-0.25325802
-0.21605739
-0.17555353
-0.15159656
-0.12604018
-0.10870235
-0.070586361
-0.045769352
-0.01076384
nan
-0.39600003
-0.36865962
-0.34020102
-0.30715346
-0.2734392
-0.26052365
-0.23002236
-0.19218689
-0.16627859
-0.14296454
-0.1030582
-0.066926658
-0.037507348
-0.0093436753
0.015967937
0.043999992
-0.36666667
-0.33626935
-0.3132135
-0.27894214
-0.24600846
-0.21171506
-0.17936814
-0.16598791
-0.13918385
-0.090017475
-0.076185867
-0.039336756
-0.0072108293
0.0181833
0.036502965
0.073333323
-0.33733332
-0.30708176
-0.27529594
-0.2458646
-0.22373295
-0.1871025
-0.16561022
-0.13169447
-0.10294805
-0.083691902
-0.039493144
-0.023120785
0.013899529
0.036106892
0.071747281
0.10266666
-0.30800003
-0.27608964
-0.24660195
-0.21496795
-0.18536104
-0.16525503
-0.12419941
-0.09770783
-0.07547906
-0.039030083
nan
0.013376571
0.043280873
0.074339658
0.096909702
0.13199998
-0.27866668
-0.24630904
-0.2210357
-0.19102524
-0.16565612
nan
-0.095822595
-0.076236479
-0.034274586
-0.014665001
0.010135191
0.032199528
0.079968475
0.096045718
0.12995473
0.16133332
-0.24933334
-0.2250189
-0.19751169
-0.1651437
-0.14010815
-0.10178942
-0.066777252
-0.044659007
-0.015085462
0.024920292
0.049190596
nan
0.10418941
0.13302462
0.15768336
0.19066666
-0.22000001
-0.19496725
-0.15881446
-0.13874069
-0.10736679
nan
-0.041871384
-0.015687007
0.0091006439
0.042372067
nan
0.10140844
0.12977855
0.16659999
0.19460823
0.21999998
-0.19066669
-0.15682876
-0.13512971
-0.09856841
-0.074785948
-0.041812092
-0.013515009
0.014396293
0.043518864
0.071410388
0.0997466
0.12465723
0.17209975
0.18795507
0.22155982
0.24933331
-0.16133334
-0.12767482
-0.10431124
-0.075569227
-0.039856642
-0.013826452
0.02481371
0.042180989
0.075091444
0.1060214
0.12636796
0.15885119
0.1952467
0.22049287
0.25219089
0.27866668
-0.13200001
-0.1057046
-0.074200377
-0.048610687
-0.022017157
0.01487599
0.046157494
0.076570205
0.095959835
0.13513581
0.158723
0.19778651
0.22246656
0.2510111
0.28036857
0.30799997
-0.10266669
-0.071090765
-0.037863337
-0.020395424
0.010156211
0.041529048
0.071198992
0.1061319
0.13565813
0.16434921
0.19544984
0.21775493
0.25008145
0.27724141
0.30950224
0.33733332
-0.073333338
-0.044
-0.014666677
0.014666662
0.043999992
0.073333323
0.10266666
0.13199998
0.16133332
0.19066666
0.21999998
0.24933331
0.27866668
0.30799997
0.33733332
0.36666667
-0.484
-0.45466664
-0.42533335
-0.396
-0.36666667
-0.33733335
-0.308
-0.27866668
-0.24933334
-0.22
-0.19066668
-0.16133335
-0.132
-0.10266668
-0.073333353
-0.044
-0.45466664
-0.42307666
-0.39443314
-0.3683691
-0.33434618
-0.30509597
-0.28438944
-0.25152329
-0.22762345
-0.19480282
-0.16300784
-0.13165657
-0.10978569
-0.069924064
-0.04255781
-0.014666662
-0.42533335
-0.3979685
-0.35733178
-0.33932766
-0.30903053
-0.2805258
-0.25169107
-0.22681171
-0.19873299
-0.1467009
-0.13254219
-0.098000847
-0.072400831
-0.037919648
-0.013292706
0.014666662
-0.396
-0.36695683
-0.33363268
-0.31303054
-0.27833933
-0.25888461
-0.21723522
-0.18578608
-0.16116896
-0.13821131
-0.095071033
-0.074164286
-0.048370089
-0.013841578
0.0083357794
0.044
-0.36666667
-0.33807749
-0.30637321
-0.28021836
-0.24324092
-0.22580419
-0.17703401
-0.16588177
-0.13305676
-0.10261156
-0.079400681
-0.046715811
-0.022045953
0.012356409
0.048721645
0.07333333
-0.33733335
-0.31493437
-0.29136747
-0.24967572
-0.22745103
-0.18547225
-0.16628033
-0.13355322
-0.10818051
-0.08055681
-0.041823838
-0.0044162832
0.018077627
0.042045068
0.066881239
0.10266666
-0.308
-0.2760672
-0.25579941
-0.21677943
-0.19479312
-0.15544744
-0.13840482
-0.099169292
-0.074726053
-0.054557715
-0.014744632
0.019173043
0.0454689
0.070662677
0.095407188
0.132
-0.27866668
-0.25054783
-0.22587641
-0.19474846
-0.15753704
-0.13525051
-0.10340115
-0.079067022
-0.051505011
-0.020751033
0.014531713
0.043357939
0.075729765
0.10017221
0.13533166
0.16133332
-0.24933334
-0.21524897
-0.20035903
-0.15297012
-0.13192341
-0.099727951
-0.070518225
-0.041089229
-0.024322104
0.0018126415
0.039843928
0.070680097
0.10328814
0.13899416
0.16545953
0.19066666
-0.22
-0.19492373
-0.15964969
-0.12815069
-0.093399145
-0.075006418
-0.046760425
-0.0154855
0.012776265
0.041032743
0.082392484
0.11003625
0.13922828
0.16704491
nan
0.22
-0.19066668
-0.16152281
-0.13440561
-0.098598272
nan
-0.041583084
-0.015627163
0.015081644
0.042236142
0.072080158
0.11250982
0.13875875
0.16624925
0.1957116
0.21489753
0.24933332
-0.16133335
-0.13063012
-0.1044525
-0.075527795
-0.03831638
-0.016759241
0.020355463
0.044219445
nan
0.10006846
0.13913472
0.15207712
0.18862842
0.21792369
0.25078607
0.27866665
-0.132
-0.099459976
-0.068223216
-0.047998764
-0.0086035132
0.018322369
nan
nan
0.102708
0.13103221
0.15674812
0.19148682
0.21900688
0.25273147
0.27675661
0.308
-0.10266668
-0.077715181
-0.043261807
-0.011428276
0.015653759
0.047792967
nan
0.10188438
0.12523802
0.15390033
0.18793437
0.21909805
0.2483253
0.27599517
0.30700529
0.33733332
-0.073333353
-0.045920473
-0.018452661
0.022060305
0.042408872
0.069673203
0.10090975
0.13081542
0.16101338
0.19513652
0.21848971
0.25071529
0.2769945
0.30933806
0.33284029
0.36666664
-0.044
-0.014666662
0.014666662
0.044
0.07333333
0.10266666
0.132
0.16133332
0.19066666
0.22
0.24933332
0.27866665
0.308
0.33733332
0.36666664
0.396
-0.45466667
-0.42533332
-0.39600003
-0.36666667
-0.33733335
-0.30800003
-0.27866668
-0.24933335
-0.22000001
-0.19066668
-0.16133335
-0.13200003
-0.10266668
-0.073333353
-0.04400003
-0.014666677
-0.42533332
-0.39945126
-0.37159875
-0.34078336
-0.31239694
-0.27918312
-0.25845397
-0.21460415
-0.20219377
-0.16377965
-0.13536744
-0.10550373
-0.06735158
-0.041319732
-0.015528549
0.014666662
-0.39600003
-0.3667804
-0.33276802
-0.3173615
-0.27751464
-0.24827111
-0.21511243
-0.19443838
-0.15833634
-0.12179713
-0.10690154
-0.074426897
-0.04035259
-0.011587633
0.01554721
0.043999985
-0.36666667
-0.34291419
-0.31147808
-0.28569365
-0.25809094
-0.21831392
-0.19215223
-0.15629564
-0.13338257
-0.10363083
-0.075270578
-0.044347487
-0.020394973
0.013524124
0.039948847
0.073333323
-0.33733335
-0.30898649
-0.2866911
-0.24917589
-0.22240005
-0.18654659
-0.15227136
-0.13016073
-0.10061256
-0.080654517
-0.051289752
-0.0088425288
0.018103352
0.046017051
0.072865069
0.10266665
-0.30800003
-0.27611312
-0.23828784
nan
-0.19958906
-0.16270742
-0.13656937
-0.09671098
-0.080031738
-0.045185357
-0.014115366
0.010864429
0.05807944
0.07762295
0.099769875
0.13199998
-0.27866668
-0.24627529
-0.22050545
-0.17676282
-0.15840207
-0.14151827
-0.11234039
-0.068183444
-0.050345361
-0.011388632
0.010306943
0.041426077
0.076436877
0.10836188
0.12965073
0.16133332
-0.24933335
-0.21490146
-0.19394469
-0.15966515
-0.12201524
-0.10278025
-0.073171124
-0.053071041
-0.0064938576
0.0063515673
0.046461929
0.072348252
0.098178439
0.13396285
0.17143126
0.19066665
-0.22000001
-0.19174406
-0.16283317
-0.14427681
-0.10365385
-0.074510977
-0.040634204
-0.02113544
0.021941356
0.045160536
0.065009728
0.10405347
0.13641508
0.16200209
0.18643643
0.21999998
-0.19066668
-0.15941441
-0.12911797
-0.10042834
-0.077076234
-0.045370236
-0.014664208
nan
nan
0.079144187
0.099034004
0.1383922
0.16193661
0.19304186
0.22042947
0.24933332
-0.16133335
-0.12975623
-0.098275982
-0.079506829
-0.04589133
-0.014865786
0.013727374
nan
0.073513314
0.10351298
0.12659562
0.15415767
0.20448396
0.22681679
0.24971224
0.27866665
-0.13200003
-0.10533824
-0.074454635
-0.059161458
-0.012749342
0.014312202
0.04563091
nan
nan
0.13454926
0.16817395
0.19664806
0.21774967
0.24599305
0.27283803
0.30799997
-0.10266668
-0.074119382
-0.047672484
-0.020268194
0.0167688
0.04333514
nan
0.1017739
0.12897687
0.15979676
0.19389221
0.21631303
0.25333744
0.27278748
0.3124823
0.33733332
-0.073333353
-0.043325897
-0.0087838434
0.018032076
0.040271703
0.075499751
0.1013721
0.13202703
nan
0.18971695
0.23119967
0.24718499
0.28028765
0.31462297
0.33234242
0.36666664
-0.04400003
-0.018490942
0.012696024
0.042129625
0.074834727
0.10129324
0.13236405
0.16060922
0.18762103
0.21982226
0.25289574
0.27230814
0.30881193
0.33998567
0.36785528
0.39599997
-0.014666677
0.014666662
0.043999985
0.073333323
0.10266665
0.13199998
0.16133332
0.19066665
0.21999998
0.24933332
0.27866665
0.30799997
0.33733332
0.36666664
0.39599997
0.42533332
-0.42533332
-0.39599997
-0.36666667
-0.33733332
-0.30800003
-0.27866668
-0.24933334
-0.22000001
-0.19066668
-0.16133334
-0.13200001
-0.10266669
-0.073333338
-0.044000015
-0.014666691
0.014666662
-0.39599997
-0.36800277
-0.3367427
-0.30919489
-0.27597401
-0.2514011
-0.22092657
-0.19065061
-0.16604799
-0.13178949
-0.10500229
-0.073230237
-0.036349688
-0.01275486
0.014629305
0.044
-0.36666667
-0.3392832
-0.30656826
-0.27632049
-0.25641796
-0.21915585
-0.19678584
-0.15266751
-0.13196352
-0.093186125
-0.063367762
-0.046408739
-0.021415381
0.016390117
0.044614594
0.073333323
-0.33733332
-0.31031913
-0.28058326
-0.24971566
-0.22679624
-0.18986198
-0.16310704
-0.13022512
-0.11233179
-0.07577692
-0.03641127
-0.019904533
0.025647812
0.049542401
nan
0.10266666
-0.30800003
-0.27801359
-0.24779364
-0.21811217
-0.19939576
nan
-0.13585787
-0.10016552
-0.080795981
-0.046772577
-0.015382992
0.0098616742
0.038056172
0.074642189
0.10367365
0.132
-0.27866668
-0.2461919
-0.21979997
-0.18687992
-0.16473293
-0.12855747
-0.093979716
-0.066996239
-0.054890223
-0.013973918
0.011397907
0.040167544
0.090518601
0.08919771
0.12699334
0.16133332
-0.24933334
-0.22239792
-0.19245943
-0.16360526
-0.12905388
-0.10672931
-0.081102185
-0.049063612
-0.0057908399
0.020756464
0.038085848
0.06853085
0.10525236
0.13220438
0.15915112
0.19066666
-0.22000001
-0.1931835
-0.16190302
-0.13122343
-0.10276283
-0.072398216
-0.042561963
-0.0063549462
0.0084040072
nan
0.074516043
0.10742395
0.12988344
0.16262209
0.19686143
0.21999998
-0.19066668
-0.16359618
-0.13370992
-0.095452018
-0.073354699
-0.04375077
-0.013320296
nan
0.04620447
0.077800661
0.10737094
0.11880672
0.15520462
0.1960929
0.21012197
0.24933332
-0.16133334
-0.13463517
-0.10304405
-0.073364809
-0.040708676
-0.013566201
nan
0.043729253
nan
nan
0.12956451
0.16765104
0.19018698
0.20940644
0.25573084
0.27866668
-0.13200001
-0.10405947
-0.079364903
-0.044524554
-0.014895434
nan
nan
nan
nan
nan
0.16586381
nan
0.21833684
0.24490497
0.27708435
0.30799997
-0.10266669
-0.07194718
-0.047281809
-0.016506897
0.013438153
nan
nan
nan
0.13155359
0.16050482
nan
0.20802572
0.25207564
0.28735185
0.30760804
0.33733332
-0.073333338
-0.04761574
-0.013398006
0.020660924
0.046922673
nan
nan
0.13141841
0.16108122
0.18896315
0.22379737
0.24551234
0.28154591
0.30504552
0.33237511
0.36666667
-0.044000015
-0.013622351
0.01892327
0.042820934
nan
0.10198586
nan
0.16187418
0.18988092
0.21388522
0.25478402
0.28055558
0.29717174
0.33732775
0.37228727
0.39599997
-0.014666691
0.015969248
0.040735912
0.070103675
0.10747342
0.13202134
0.16311844
0.18884771
0.21933718
0.24994339
0.27070779
0.30900595
0.33596241
0.36634687
0.39462379
0.42533332
0.014666662
0.044
0.073333323
0.10266666
0.132
0.16133332
0.19066666
0.21999998
0.24933332
0.27866668
0.30799997
0.33733332
0.36666667
0.39599997
0.42533332
0.45466667
-0.396
-0.36666664
-0.33733335
-0.308
-0.27866668
-0.24933335
-0.22
-0.19066668
-0.16133334
-0.132
-0.10266668
-0.073333353
-0.044
-0.014666677
0.014666647
0.044
-0.36666664
-0.33835581
-0.31480923
-0.27876395
-0.24887957
-0.21684432
-0.19396724
-0.16017926
-0.12722266
-0.093647815
-0.069083832
-0.044171616
-0.021502698
0.013569808
0.044537786
0.073333338
-0.33733335
-0.30830294
-0.2825034
-0.23626228
-0.22023711
-0.19310245
-0.15598236
-0.13770476
-0.10487436
-0.073949337
-0.04505606
-0.017372029
0.018913012
0.045375027
0.074106358
0.10266666
-0.308
-0.28224206
-0.25663671
-0.22257216
-0.18478455
-0.15992717
-0.13204145
-0.11586656
-0.08206486
-0.050459962
-0.014135616
0.015951628
0.050166957
0.078065671
0.10061054
0.132
-0.27866668
-0.24353018
-0.20720132
-0.18962415
nan
-0.12440957
-0.09859176
-0.08143495
-0.04064443
-0.027755205
0.014757518
0.041545771
0.073481016
0.10083991
0.13226844
0.16133332
-0.24933335
-0.22463363
-0.18858042
-0.15700482
-0.13120112
-0.092588976
-0.064956933
-0.044998974
-0.007781737
0.010320252
0.03932685
0.065430641
0.1022251
0.13307247
0.16004723
0.19066666
-0.22
-0.18452045
-0.16476706
-0.13843597
-0.099816196
-0.057308331
-0.051513366
-0.025971048
0.0058278721
0.051408686
0.080428228
0.096933857
0.13134728
0.16008101
0.19639677
0.22
-0.19066668
-0.15520877
-0.13097176
-0.11103242
-0.057836212
-0.051702693
-0.022258788
0.018342895
0.045482375
0.073745467
0.091006219
0.13229322
0.15877143
0.18302619
0.22233503
0.24933332
-0.16133334
-0.13122681
-0.098105252
-0.063881546
-0.044595648
0.00087146956
0.008916582
0.039240912
0.07465402
0.10928944
0.13537914
0.15991442
0.18603159
0.22867151
0.24535862
0.27866668
-0.132
-0.10644328
-0.076470681
-0.047337305
-0.0076453052
0.010772832
0.045000732
nan
0.10297336
0.13528067
0.15099259
0.18990861
0.22623296
0.25282863
0.2809976
0.308
-0.10266668
nan
-0.043839268
-0.011252306
0.0076808957
0.04680125
0.073526591
nan
nan
0.16656259
nan
0.21323769
0.25518271
0.27069697
0.3099651
0.33733332
-0.073333353
-0.042937562
-0.012341815
0.0060918336
nan
0.074346259
0.10336545
0.13173762
0.16082178
nan
0.22274713
0.23785688
0.27574769
0.30465645
0.33896658
0.36666664
-0.044
-0.015106536
0.014672647
0.041803148
0.076684706
nan
0.128589
nan
0.19612655
0.21812794
0.24469623
0.27196243
0.30953047
0.33546504
0.37130612
0.396
-0.014666677
0.013181114
0.041483335
0.075226784
0.10110777
nan
0.16372213
0.19370015
0.22014435
0.24356186
0.28003538
0.30607119
0.33821183
0.37144497
0.39219069
0.42533332
0.014666647
0.041503672
0.073420167
0.10464237
0.13599375
0.16009685
0.19455825
0.22160016
0.25462463
0.28208652
0.30773374
0.33930269
0.36755669
0.39842615
0.42129984
0.45466664
0.044
0.073333338
0.10266666
0.132
0.16133332
0.19066666
0.22
0.24933332
0.27866668
0.308
0.33733332
0.36666664
0.396
0.42533332
0.45466664
0.484
-0.36666667
-0.33733332
-0.30800003
-0.27866668
-0.24933335
-0.22000003
-0.19066668
-0.16133335
-0.13200001
-0.10266668
-0.073333353
-0.04400003
-0.014666677
0.014666647
0.04399997
0.073333323
-0.33733332
-0.3089402
-0.28345591
-0.24284944
-0.22288895
-0.19590417
-0.16295815
-0.12952688
-0.10594368
-0.075633653
-0.04690006
-0.01036422
0.017599339
0.042878594
0.073878795
0.10266666
-0.30800003
-0.27819464