# vtk DataFile Version 3.0
WoSt Poisson solution ã?structured grid
ASCII
DATASET STRUCTURED_POINTS
DIMENSIONS 8 8 8
ORIGIN -0.22 -0.22 -0.22
SPACING 0.062857144 0.062857144 0.062857144
POINT_DATA 512
SCALARS solution float 1
LOOKUP_TABLE default
-0.65999997
-0.59714282
-0.53428566
-0.47142857
-0.40857142
-0.34571427
-0.28285715
-0.22
-0.59714282
-0.53428566
-0.47142854
-0.40857142
-0.34571427
-0.28285712
-0.22
-0.15714285
-0.53428566
-0.47142854
-0.40857142
-0.34571427
-0.28285712
-0.21999998
-0.15714286
-0.094285712
-0.47142857
-0.40857142
-0.34571427
-0.28285715
-0.22
-0.15714285
-0.094285727
-0.031428576
-0.40857142
-0.34571427
-0.28285712
-0.22
-0.15714285
-0.094285697
-0.031428576
0.031428576
-0.34571427
-0.28285712
-0.21999998
-0.15714285
-0.094285697
-0.031428546
0.031428576
0.094285727
-0.28285715
-0.22
-0.15714286
-0.094285727
-0.031428576
0.031428576
0.094285697
0.15714285
-0.22
-0.15714285
-0.094285712
-0.031428576
0.031428576
0.094285727
0.15714285
0.22
-0.59714282
-0.53428566
-0.47142854
-0.40857142
-0.34571427
-0.28285712
-0.22
-0.15714285
-0.53428566
-0.4695448
-0.41069546
-0.33820587
-0.28240126
-0.22583814
-0.15781428
-0.094285697
-0.47142854
-0.41492242
-0.34108648
-0.27612534
-0.20690681
-0.15725648
-0.097518764
-0.031428561
-0.40857142
-0.35652483
-0.26814628
-0.21648984
-0.16332491
-0.10837561
-0.042095602
0.031428576
-0.34571427
-0.26692343
-0.23062165
-0.16213892
-0.090803929
-0.049276277
0.060120117
0.094285727
-0.28285712
-0.23500624
-0.16813381
-0.12322736
-0.046834052
0.025071517
0.093751706
0.15714288
-0.22
-0.15756367
-0.10073224
-0.030104771
-7.0269394e-05
0.10689377
0.15933521
0.22
-0.15714285
-0.094285697
-0.031428561
0.031428576
0.094285727
0.15714288
0.22
0.28285715
-0.53428572
-0.47142857
-0.40857142
-0.34571427
-0.28285712
-0.21999998
-0.15714286
-0.094285712
-0.47142857
-0.41712564
-0.35802338
-0.30222866
-0.23567389
-0.15676162
-0.095284082
-0.031428561
-0.40857142
-0.34441012
-0.28709608
-0.24891315
-0.15080047
-0.11011305
-0.03225084
0.031428576
-0.34571427
-0.27481931
-0.23202012
-0.16246
-0.10868853
-0.023938641
0.019415803
0.094285712
nan
-0.22993998
-0.15159778
-0.11904624
-0.046449739
-0.0029748627
0.099683195
0.15714286
-0.21999998
-0.15798751
-0.10767877
-0.064339638
0.0042767134
0.087985061
0.1744957
0.22000001
-0.15714286
-0.10752065
-0.038644083
0.027939346
0.090787299
0.17401551
0.23293601
0.28285712
-0.094285712
-0.031428561
0.031428576
0.094285712
0.15714286
0.22000001
0.28285712
0.34571427
-0.47142857
-0.40857142
-0.34571427
-0.28285715
-0.22
-0.15714285
-0.094285727
-0.031428576
-0.40857142
-0.34733734
-0.26957712
-0.21884689
-0.1441789
-0.089490488
-0.038300212
0.031428576
-0.34571427
-0.26771343
-0.23406342
-0.14774469
-0.10661715
-0.024483297
0.035937972
0.094285712
-0.28285715
-0.24397817
-0.1752741
-0.11123288
-0.051582005
0.029677672
0.097964987
0.15714285
-0.22
-0.16366023
-0.12848322
-0.11481503
0.007608023
0.0974342
0.17122161
0.22
-0.15714285
-0.11105627
-0.074629374
-0.06689205
0.081080407
0.16048504
0.22275439
0.28285715
-0.094285727
-0.036746483
0.004150454
0.077324085
0.16322426
0.23698571
0.28309703
0.34571427
-0.031428576
0.031428576
0.094285712
0.15714285
0.22
0.28285715
0.34571427
0.40857142
-0.40857142
-0.34571427
-0.28285712
-0.22
-0.15714285
-0.094285697
-0.031428576
0.031428576
-0.34571427
-0.29712987
-0.21668081
-0.16105773
-0.090756893
-0.060716305
0.031398106
0.094285727
-0.28285712
-0.23251668
-0.14454795
-0.10668441
-0.044352096
0.023199106
0.085895129
0.15714286
-0.22
-0.17171821
-0.099799953
-0.062263865
0.028036023
0.094255053
0.14433195
0.22
-0.15714285
-0.092876762
-0.036914662
-0.041970041
0.089459248
0.16822311
0.23297773
0.28285715
-0.094285697
-0.038547609
0.0083973557
nan
nan
0.22003384
0.2897971
0.3457143
-0.031428576
0.02743686
0.09851671
0.23111986
0.25506547
0.2954154
0.34299988
0.40857142
0.031428576
0.094285727
0.15714286
0.22
0.28285715
0.3457143
0.40857142
0.47142857
-0.34571427
-0.28285712
-0.21999997
-0.15714285
-0.094285697
-0.031428546
0.031428576
0.094285727
-0.28285712
-0.20866324
-0.14997973
-0.11002117
-0.046370879
0.016430885
0.085877217
0.15714288
-0.21999997
-0.13416122
-0.092137165
-0.026289281
0.042631514
0.09442836
0.14058027
0.22000001
-0.15714285
-0.11629114
-0.024089906
0.037914384
0.091947451
0.15972564
0.2213081
0.28285715
-0.094285697
-0.044913914
0.01397837
0.11518229
0.18285918
0.21749626
0.28536111
0.3457143
-0.031428546
0.051438209
0.087391824
0.18871102
0.27447927
0.27920336
0.35378471
0.40857145
0.031428576
0.093875311
nan
0.24896756
0.30822122
0.34960511
0.40866488
0.47142857
0.094285727
0.15714288
0.22000001
0.28285715
0.3457143
0.40857145
0.47142857
0.53428572
-0.28285715
-0.22
-0.15714285
-0.094285727
-0.031428576
0.031428576
0.094285697
0.15714285
-0.22
-0.16369693
-0.094565131
-0.035803899
0.033652049
0.093919024
0.15446375
0.22
-0.15714285
-0.10099307
-0.032322172
0.016124098
0.08661589
0.15388121
0.22032085
0.28285712
-0.094285727
-0.0243853
0.031584121
0.072625443
0.15994401
0.23312248
0.27785987
0.34571427
-0.031428576
0.023964677
0.097882695
0.16475633
0.21634682
0.30604184
0.35422146
0.40857142
0.031428576
0.099099681
0.17044431
0.23008235
0.29594666
0.33512521
0.41479415
0.47142857
0.094285697
0.16609494
0.22088219
0.28017947
0.3590557
0.39939249
0.48880643
0.53428566
0.15714285
0.22
0.28285712
0.34571427
0.40857142
0.47142857
0.53428566
0.59714282
-0.22
-0.15714285
-0.094285697
-0.031428576
0.031428576
0.094285727
0.15714285
0.22
-0.15714285
-0.094285697
-0.031428546
0.031428576
0.094285727
0.15714288
0.22
0.28285715
-0.094285697
-0.031428546
0.031428576
0.094285712
0.15714286
0.22000001
0.28285712
0.34571427
-0.031428576
0.031428576
0.094285712
0.15714285
0.22
0.28285715
0.34571427
0.40857142
0.031428576
0.094285727
0.15714286
0.22
0.28285715
0.3457143
0.40857142
0.47142857
0.094285727
0.15714288
0.22000001
0.28285715
0.3457143
0.40857145
0.47142857
0.53428572
0.15714285
0.22
0.28285712
0.34571427
0.40857142
0.47142857
0.53428566
0.59714282
0.22
0.28285715
0.34571427
0.40857142
0.47142857
0.53428572
0.59714282
0.65999997
SCALARS is_valid float 1
LOOKUP_TABLE default
1
1
1
1
1
1
1
1
1
1
1
1
1
1
1
1
1
1
1
1
1
1
1
1
1
1
1
1
1
1
1
1
1
1
1
1
1
1
1
1
1
1
1
1
1
1
1
1
1
1
1
1
1
1
1
1
1
1
1
1
1
1
1
1
1
1
1
1
1
1
1
1
1
1
1
1
1
1
1
1
1
1
1
1
1
1
1
1
1
1
1
1
1
1
1
1
1
1
1
1
1
1
1
1
1
1
1
1
1
1
1
1
1
1
1
1
1
1
1
1
1
1
1
1
1
1
1
1
1
1
1
1
1
1
1
1
1
1
1
1
1
1
1
1
1
1
1
1
1
1
1
1
1
1
1
1
1
1
1
1
0
1
1
1
1
1
1
1
1
1
1
1
1
1
1
1
1
1
1
1
1
1
1
1
1
1
1
1
1
1
1
1
1
1
1
1
1
1
1
1
1
1
1
1
1
1
1
1
1
1
1
1
1
1
1
1
1
1
1
1
1
1
1
1
1
1
1
1
1
1
1
1
1
1
1
1
1
1
1
1
1
1
1
1
1
1
1
1
1
1
1
1
1
1
1
1
1
1
1
1
1
1
1
1
1
1
1
1
1
1
1
1
1
1
1
1
1
1
1
1
1
1
1
1
1
1
1
1
1
1
1
1
1
1
1
1
1
1
1
0
0
1
1
1
1
1
1
1
1
1
1
1
1
1
1
1
1
1
1
1
1
1
1
1
1
1
1
1
1
1
1
1
1
1
1
1
1
1
1
1
1
1
1
1
1
1
1
1
1
1
1
1
1
1
1
1
1
1
1
1
1
1
1
1
1
1
1
1
1
1
0
1
1
1
1
1
1
1
1
1
1
1
1
1
1
1
1
1
1
1
1
1
1
1
1
1
1
1
1
1
1
1
1
1
1
1
1
1
1
1
1
1
1
1
1
1
1
1
1
1
1
1
1
1
1
1
1
1
1
1
1
1
1
1
1
1
1
1
1
1
1
1
1
1
1
1
1
1
1
1
1
1
1
1
1
1
1
1
1
1
1
1
1
1
1
1
1
1
1
1
1
1
1
1
1
1
1
1
1
1
1
1
1
1
1
1
1
1
1
1
1
1
1
1
1
1
1
1
1
1
1
1
1
1
1
1
1
1
1
1
1
1
SCALARS std_error float 1
LOOKUP_TABLE default
0
0
0
0
0
0
0
0
0
0
0
0
0
0
0
0
0
0
0
0
0
0
0
0
0
0
0
0
0
0
0
0
0
0
0
0
0
0
0
0
0
0
0
0
0
0
0
0
0
0
0
0
0
0
0
0
0
0
0
0
0
0
0
0
0
0
0
0
0
0
0
0
0
0.0075325281
0.0074574654
0.0098816147
0.0092872353
0.0086698178
0.0069970977
0
0
0.008700503
0.010626601
0.011158967
0.011133134
0.010237208
0.0088308239
0
0
0.0080740796
0.012298863
0.012335917
0.010838308
0.010723193
0.0089234365
0
0
0.0091149146
0.010332229
0.011914234
0.012333388
0.010172914
0.0087968642
0
0
0.008103163
0.010377817
0.010504657
0.011412828
0.010590746
0.0091190413
0
0
0.0079257004
0.0075636646
0.0089648031
0.0091416286
0.0090730265
0.0076230168
0
0
0
0
0
0
0
0
0
0
0
0
0
0
0
0
0
0
0.0070423549
0.0093004033
0.0099467067
0.010422753
0.010967108
0.0087771351
0
0
0.0095203454
0.011906868
0.01281826
0.014188725
0.012490095
0.010339095
0
0
0.010646657
0.012319157
0.015618609
0.014510235
0.013596325
0.01111468
0
0
0.010333864
0.013746785
0.0139495
0.013634255
0.01342611
0.0104913
0
0
0.0099062761
0.012587088
0.013264221
0.014071961
0.013166321
0.010069841
0
0
0.0081579927
0.0098901708
0.011247996
0.011292635
0.010505033
0.0080807814
0
0
0
0
0
0
0
0
0
0
0
0
0
0
0
0
0
0
0.0087777283
0.011643843
0.0122359
0.011842416
0.011154622
0.0082723657
0
0
0.01087607
0.013380467
0.015306387
0.014186161
0.014354757
0.011023576
0
0
0.010787261
0.013846233
0.015838988
0.015405247
0.014372829
0.011921223
0
0
0.010733603
0.013844108
0.014763229
0.015650278
0.014576827
0.011261344
0
0
0.011114617
0.01180541
0.015215452
0.014894922
0.013498546
0.010754925
0
0
0.0087331478
0.011040267
0.012326816
0.012493294
0.01071306
0.010396837
0
0
0
0
0
0
0
0
0
0
0
0
0
0
0
0
0
0
0.0078842957
0.011485903
0.011175619
0.01191825
0.010425829
0.0087022474
0
0
0.010452618
0.015365095
0.015556359
0.013955397
0.01349829
0.011157193
0
0
0.011112094
0.014136864
0.015552094
0.016877664
0.015275654
0.012693629
0
0
0.01281722
0.014745961
0.017053749
0.016875794
0.014716248
0.011859994
0
0
0.01203506
0.01404939
0
0
0.013437053
0.010654563
0
0
0.0089487368
0.010746861
0.010243427
0.011485329
0.011042072
0.009542373
0
0
0
0
0
0
0
0
0
0
0
0
0
0
0
0
0
0
0.009666984
0.010820595
0.010475593
0.01036956
0.010960886
0.0089024501
0
0
0.011595537
0.01326427
0.014115678
0.013632236
0.012392003
0.010733419
0
0
0.010518612
0.013442531
0.014210036
0.015439149
0.014184489
0.010923781
0
0
0.012484659
0.015219728
0.015309813
0.015186021
0.014916864
0.010871048
0
0
0.010457997
0.013654893
0.013600765
0.013244281
0.013006109
0.009162439
0
0
0.0087712472
0
0.0098705664
0.0099024642
0.010332014
0.008478188
0
0
0
0
0
0
0
0
0
0
0
0
0
0
0
0
0
0
0.0078794872
0.0092644151
0.0086274184
0.0086624278
0.0078196451
0.0069158669
0
0
0.0091635948
0.0097664054
0.011675362
0.010633733
0.010560346
0.0086484235
0
0
0.0093262699
0.011848235
0.012127376
0.012157482
0.010008991
0.0098763527
0
0
0.0090212971
0.011678873
0.011386556
0.01162614
0.010954785
0.0080994936
0
0
0.009101036
0.010496398
0.011537114
0.0097324066
0.011655997
0.0086746747
0
0
0.0080727115
0.00806724
0.0098861326
0.0085344519
0.01024148
0.0058213933
0
0
0
0
0
0
0
0
0
0
0
0
0
0
0
0
0
0
0
0
0
0
0
0
0
0
0
0
0
0
0
0
0
0
0
0
0
0
0
0
0
0
0
0
0
0
0
0
0
0
0
0
0
0
0
0
0
0
0
0
0
0
0
0
0
0
0
0
0
0
0
0
0
SCALARS sample_variance float 1
LOOKUP_TABLE default
0
0
0
0
0
0
0
0
0
0
0
0
0
0
0
0
0
0
0
0
0
0
0
0
0
0
0
0
0
0
0
0
0
0
0
0
0
0
0
0
0
0
0
0
0
0
0
0
0
0
0
0
0
0
0
0
0
0
0
0
0
0
0
0
0
0
0
0
0
0
0
0
0
0.01452518
0.014237129
0.024997456
0.022080699
0.01924243
0.0125336
0
0
0.01937888
0.028908711
0.031877771
0.031730346
0.026828907
0.019963764
0
0
0.016688835
0.038723081
0.038956761
0.030072043
0.02943664
0.020384697
0
0
0.021268906
0.027329266
0.036338933
0.038940784
0.026492972
0.019810513
0
0
0.016809281
0.027570965
0.028249044
0.033344679
0.02871396
0.021288171
0
0
0.016081082
0.01464551
0.02057413
0.021393761
0.021073872
0.014876259
0
0
0
0
0
0
0
0
0
0
0
0
0
0
0
0
0
0
0.01269626
0.022143358
0.025327865
0.027810249
0.030791031
0.019721756
0
0
0.023203066
0.036294017
0.042062797
0.051537897
0.039936632
0.027365603
0
0
0.029017935
0.038850974
0.062448882
0.053900011
0.047324173
0.031625248
0
0
0.02733792
0.048377369
0.049814671
0.047588583
0.046146672
0.028177248
0
0
0.025122384
0.040559303
0.045040525
0.050693139
0.044378109
0.025958832
0
0
0.017037529
0.025040761
0.03238846
0.032646045
0.028251065
0.016716553
0
0
0
0
0
0
0
0
0
0
0
0
0
0
0
0
0
0
0.019724417
0.034708243
0.038327619
0.035902157
0.031852953
0.0175186
0
0
0.030281955
0.045833442
0.059977084
0.051519271
0.052751116
0.031108921
0
0
0.02978944
0.04907985
0.064223632
0.06075434
0.052884027
0.036381584
0
0
0.029493824
0.049064789
0.055795949
0.06270238
0.054395873
0.032465372
0
0
0.031624887
0.035678133
0.059266556
0.056795832
0.046645947
0.029611116
0
0
0.019524574
0.031203195
0.038899299
0.039957087
0.029381035
0.027672123
0
0
0
0
0
0
0
0
0
0
0
0
0
0
0
0
0
0
0.015913503
0.033773046
0.031972982
0.036363434
0.027826665
0.019386655
0
0
0.027969848
0.060438052
0.061952077
0.049856797
0.046644177
0.031867635
0
0
0.031610526
0.051161837
0.061918113
0.072923027
0.059736483
0.041248821
0
0
0.042055968
0.0556655
0.074452564
0.072906867
0.055441398
0.03600882
0
0
0.037079722
0.050530653
0
0
0.046221927
0.029061047
0
0
0.020500453
0.029566724
0.026861515
0.033769671
0.031213406
0.023310563
0
0
0
0
0
0
0
0
0
0
0
0
0
0
0
0
0
0
0.023923347
0.029973829
0.028092938
0.027527109
0.030756105
0.020288926
0
0
0.034420855
0.045040864
0.051008608
0.047574494
0.039311804
0.02949281
0
0
0.028324148
0.046259619
0.051692832
0.061022032
0.05150713
0.030548221
0
0
0.039901882
0.059299864
0.060003936
0.059037499
0.056963284
0.030253999
0
0
0.027998643
0.047732763
0.047355089
0.044905208
0.043304671
0.021491276
0
0
0.019695302
0
0.02494159
0.025103053
0.027328134
0.018401198
0
0
0
0
0
0
0
0
0
0
0
0
0
0
0
0
0
0
0.015894098
0.021972323
0.019054681
0.019209638
0.015653593
0.012244279
0
0
0.021496696
0.024417965
0.0348964
0.02894753
0.028549351
0.019147577
0
0
0.022266701
0.035937447
0.037650753
0.037837919
0.025646055
0.024970843
0
0
0.020834252
0.034917392
0.033191334
0.034602791
0.030721875
0.016794059
0
0
0.021204188
0.028204637
0.03407488
0.024248254
0.034780741
0.019263994
0
0
0.016683178
0.016660573
0.025020316
0.018646238
0.026851306
0.0086754868
0
0
0
0
0
0
0
0
0
0
0
0
0
0
0
0
0
0
0
0
0
0
0
0
0
0
0
0
0
0
0
0
0
0
0
0
0
0
0
0
0
0
0
0
0
0
0
0
0
0
0
0
0
0
0
0
0
0
0
0
0
0
0
0
0
0
0
0
0
0
0
0
0
SCALARS mean_steps float 1
LOOKUP_TABLE default
1
1
1
1
1
1
1
1
1
1
1
1
1
1
1
1
1
1
1
1
1
1
1
1
1
1
1
1
1
1
1
1
1
1
1
1
1
1
1
1
1
1
1
1
1
1
1
1
1
1
1
1
1
1
1
1
1
1
1
1
1
1
1
1
1
1
1
1
1
1
1
1
1
21.175781
25.464844
28.808594
23.617188
24.316406
21.5
1
1
24.359375
29.875
30.925781
35.066406
25.171875
26.375
1
1
25.609375
36.753906
37.230469
33.578125
29.488281
27.589844
1
1
28.140625
37.804688
45.480469
39.664062
30.996094
23.988281
1
1
27.628906
39.894531
40.054688
41.8125
36.851562
28.324219
1
1
33.527344
30.011719
29.203125
29.660156
30.339844
24.210938
1
1
1
1
1
1
1
1
1
1
1
1
1
1
1
1
1
1
23.414062
25.988281
29.8125
26.703125
29.800781
20.742188
1
1
28.65625
37.144531
36.21875
37.929688
32.160156
29.441406
1
1
39.457031
50.785156
61.152344
51.726562
45.6875
35.164062
1
0
36.773438
55.21875
69.027344
58.261719
47.546875
30.339844
1
1
40.621094
68.261719
69.316406
72.105469
52.230469
31.726562
1
1
37.011719
52.40625
66.46875
51.316406
40.414062
24.988281
1
1
1
1
1
1
1
1
1
1
1
1
1
1
1
1
1
1
25.070312
35.996094
35.527344
26.800781
31.414062
25.472656
1
1
37.179688
49.730469
47.058594
37.679688
44.195312
25.078125
1
1
34.226562
67.441406
70.605469
66.324219
51.742188
32.113281
1
1
43.789062
93.71875
130.65234
98.792969
70.148438
33.703125
1
1
53.339844
89.765625
167.23828
122.82812
71.265625
35.703125
1
1
50.558594
100.77344
131.44141
77.820312
49.355469
34.953125
1
1
1
1
1
1
1
1
1
1
1
1
1
1
1
1
1
1
23.175781
28.457031
31.054688
30.019531
29.117188
24.988281
1
1
32.644531
45.242188
52.246094
46.835938
38.792969
30.890625
1
1
37.355469
57.851562
78.8125
72.589844
54.074219
34.46875
1
1
53.273438
97.429688
158.98828
112.95703
76.101562
40.457031
1
1
55.457031
126.25781
0
0
65.636719
39.015625
1
1
38.199219
86.347656
125.62891
81.960938
58.726562
31.621094
1
1
1
1
1
1
1
1
1
1
1
1
1
1
1
1
1
1
27.777344
30.667969
24.992188
30.984375
27.765625
24.476562
1
1
35.304688
28.972656
35.589844
39.230469
34.75
27.445312
1
1
31.21875
50.550781
54.398438
51.203125
51.648438
31.347656
1
1
42.382812
74.316406
84.289062
75.84375
62.949219
37.785156
1
1
39.808594
77.980469
88.523438
86.847656
55.898438
34.257812
1
1
37.007812
0
54.941406
51.84375
39.113281
27.839844
1
1
1
1
1
1
1
1
1
1
1
1
1
1
1
1
1
1
22.886719
23.714844
25.613281
21.765625
21.757812
20.71875
1
1
27.292969
26.996094
32.03125
34.457031
24.710938
24
1
1
30.117188
38.066406
41.359375
39.261719
30.300781
24.683594
1
1
27.953125
45.660156
55.707031
36.871094
42.605469
25.289062
1
1
29.183594
34.398438
47.863281
37.777344
34.941406
26.765625
1
1
26.527344
32.011719
32.953125
31.96875
29.574219
21.0625
1
1
1
1
1
1
1
1
1
1
1
1
1
1
1
1
1
1
1
1
1
1
1
1
1
1
1
1
1
1
1
1
1
1
1
1
1
1
1
1
1
1
1
1
1
1
1
1
1
1
1
1
1
1
1
1
1
1
1
1
1
1
1
1
1
1
1
1
1
1
1
1
1
SCALARS samples_used int 1
LOOKUP_TABLE default
256
256
256
256
256
256
256
256
256
256
256
256
256
256
256
256
256
256
256
256
256
256
256
256
256
256
256
256
256
256
256
256
256
256
256
256
256
256
256
256
256
256
256
256
256
256
256
256
256
256
256
256
256
256
256
256
256
256
256
256
256
256
256
256
256
256
256
256
256
256
256
256
256
256
256
256
256
256
256
256
256
256
256
256
256
256
256
256
256
256
256
256
256
256
256
256
256
256
256
256
256
256
256
256
256
256
256
256
256
256
256
256
256
256
256
256
256
256
256
256
256
256
256
256
256
256
256
256
256
256
256
256
256
256
256
256
256
256
256
256
256
256
256
256
256
256
256
256
256
256
256
256
256
256
256
256
256
256
256
256
0
256
256
256
256
256
256
256
256
256
256
256
256
256
256
256
256
256
256
256
256
256
256
256
256
256
256
256
256
256
256
256
256
256
256
256
256
256
256
256
256
256
256
256
256
256
256
256
256
256
256
256
256
256
256
256
256
256
256
256
256
256
256
256
256
256
256
256
256
256
256
256
256
256
256
256
256
256
256
256
256
256
256
256
256
256
256
256
256
256
256
256
256
256
256
256
256
256
256
256
256
256
256
256
256
256
256
256
256
256
256
256
256
256
256
256
256
256
256
256
256
256
256
256
256
256
256
256
256
256
256
256
256
256
256
256
256
256
256
0
0
256
256
256
256
256
256
256
256
256
256
256
256
256
256
256
256
256
256
256
256
256
256
256
256
256
256
256
256
256
256
256
256
256
256
256
256
256
256
256
256
256
256
256
256
256
256
256
256
256
256
256
256
256
256
256
256
256
256
256
256
256
256
256
256
256
256
256
256
256
0
256
256
256
256
256
256
256
256
256
256
256
256
256
256
256
256
256
256
256
256
256
256
256
256
256
256
256
256
256
256
256
256
256
256
256
256
256
256
256
256
256
256
256
256
256
256
256
256
256
256
256
256
256
256
256
256
256
256
256
256
256
256
256
256
256
256
256
256
256
256
256
256
256
256
256
256
256
256
256
256
256
256
256
256
256
256
256
256
256
256
256
256
256
256
256
256
256
256
256
256
256
256
256
256
256
256
256
256
256
256
256
256
256
256
256
256
256
256
256
256
256
256
256
256
256
256
256
256
256
256
256
256
256
256
256
256
256
256
256
256
256
SCALARS exact float 1
LOOKUP_TABLE default
-0.65999997
-0.59714282
-0.53428566
-0.47142857
-0.40857142
-0.34571427
-0.28285715
-0.22
-0.59714282
-0.53428566
-0.47142854
-0.40857142
-0.34571427
-0.28285712
-0.22
-0.15714285
-0.53428566
-0.47142854
-0.40857142
-0.34571427
-0.28285712
-0.21999998
-0.15714286
-0.094285712
-0.47142857
-0.40857142
-0.34571427
-0.28285715
-0.22
-0.15714285
-0.094285727
-0.031428576
-0.40857142
-0.34571427
-0.28285712
-0.22
-0.15714285
-0.094285697
-0.031428576
0.031428576
-0.34571427
-0.28285712
-0.21999998
-0.15714285
-0.094285697
-0.031428546
0.031428576
0.094285727
-0.28285715
-0.22
-0.15714286
-0.094285727
-0.031428576
0.031428576
0.094285697
0.15714285
-0.22
-0.15714285
-0.094285712
-0.031428576
0.031428576
0.094285727
0.15714285
0.22
-0.59714282
-0.53428566
-0.47142854
-0.40857142
-0.34571427
-0.28285712
-0.22
-0.15714285
-0.53428566
-0.47142854
-0.40857139
-0.34571427
-0.28285712
-0.21999997
-0.15714285
-0.094285697
-0.47142854
-0.40857139
-0.34571427
-0.28285712
-0.21999998
-0.15714283
-0.094285712
-0.031428561
-0.40857142
-0.34571427
-0.28285712
-0.22
-0.15714285
-0.094285697
-0.031428576
0.031428576
-0.34571427
-0.28285712
-0.21999998
-0.15714285
-0.094285697
-0.031428546
0.031428576
0.094285727
-0.28285712
-0.21999997
-0.15714283
-0.094285697
-0.031428546
0.031428605
0.094285727
0.15714288
-0.22
-0.15714285
-0.094285712
-0.031428576
0.031428576
0.094285727
0.15714285
0.22
-0.15714285
-0.094285697
-0.031428561
0.031428576
0.094285727
0.15714288
0.22
0.28285715
-0.53428572
-0.47142857
-0.40857142
-0.34571427
-0.28285712
-0.21999998
-0.15714286
-0.094285712
-0.47142857
-0.40857142
-0.34571427
-0.28285712
-0.21999998
-0.15714283
-0.094285712
-0.031428561
-0.40857142
-0.34571427
-0.28285712
-0.22
-0.15714285
-0.094285697
-0.031428576
0.031428576
-0.34571427
-0.28285712
-0.22
-0.15714286
-0.094285712
-0.031428561
0.031428561
0.094285712
0
-0.21999998
-0.15714285
-0.094285712
-0.031428561
0.03142859
0.094285712
0.15714286
-0.21999998
-0.15714283
-0.094285697
-0.031428561
0.03142859
0.094285741
0.15714286
0.22000001
-0.15714286
-0.094285712
-0.031428576
0.031428561
0.094285712
0.15714286
0.21999998
0.28285712
-0.094285712
-0.031428561
0.031428576
0.094285712
0.15714286
0.22000001
0.28285712
0.34571427
-0.47142857
-0.40857142
-0.34571427
-0.28285715
-0.22
-0.15714285
-0.094285727
-0.031428576
-0.40857142
-0.34571427
-0.28285712
-0.22
-0.15714285
-0.094285697
-0.031428576
0.031428576
-0.34571427
-0.28285712
-0.22
-0.15714286
-0.094285712
-0.031428561
0.031428561
0.094285712
-0.28285715
-0.22
-0.15714286
-0.094285727
-0.031428576
0.031428576
0.094285697
0.15714285
-0.22
-0.15714285
-0.094285712
-0.031428576
0.031428576
0.094285727
0.15714285
0.22
-0.15714285
-0.094285697
-0.031428561
0.031428576
0.094285727
0.15714288
0.22
0.28285715
-0.094285727
-0.031428576
0.031428561
0.094285697
0.15714285
0.22
0.28285712
0.34571427
-0.031428576
0.031428576
0.094285712
0.15714285
0.22
0.28285715
0.34571427
0.40857142
-0.40857142
-0.34571427
-0.28285712
-0.22
-0.15714285
-0.094285697
-0.031428576
0.031428576
-0.34571427
-0.28285712
-0.21999997
-0.15714285
-0.094285697
-0.031428546
0.031428576
0.094285727
-0.28285712
-0.21999997
-0.15714285
-0.094285712
-0.031428561
0.03142859
0.094285712
0.15714286
-0.22
-0.15714285
-0.094285712
-0.031428576
0.031428576
0.094285727
0.15714285
0.22
-0.15714285
-0.094285697
-0.031428561
0.031428576
0.094285727
0.15714288
0.22
0.28285715
-0.094285697
-0.031428546
0.03142859
0
0
0.22000003
0.28285715
0.3457143
-0.031428576
0.031428576
0.094285712
0.15714285
0.22
0.28285715
0.34571427
0.40857142
0.031428576
0.094285727
0.15714286
0.22
0.28285715
0.3457143
0.40857142
0.47142857
-0.34571427
-0.28285712
-0.21999997
-0.15714285
-0.094285697
-0.031428546
0.031428576
0.094285727
-0.28285712
-0.21999997
-0.15714282
-0.094285697
-0.031428546
0.031428605
0.094285727
0.15714288
-0.21999997
-0.15714282
-0.094285697
-0.031428561
0.03142859
0.094285741
0.15714286
0.22000001
-0.15714285
-0.094285697
-0.031428561
0.031428576
0.094285727
0.15714288
0.22
0.28285715
-0.094285697
-0.031428546
0.03142859
0.094285727
0.15714288
0.22000003
0.28285715
0.3457143
-0.031428546
0.031428605
0.094285741
0.15714288
0.22000003
0.28285718
0.3457143
0.40857145
0.031428576
0.094285727
0
0.22
0.28285715
0.3457143
0.40857142
0.47142857
0.094285727
0.15714288
0.22000001
0.28285715
0.3457143
0.40857145
0.47142857
0.53428572
-0.28285715
-0.22
-0.15714285
-0.094285727
-0.031428576
0.031428576
0.094285697
0.15714285
-0.22
-0.15714285
-0.094285697
-0.031428576
0.031428576
0.094285727
0.15714285
0.22
-0.15714285
-0.094285697
-0.031428576
0.031428561
0.094285712
0.15714286
0.21999998
0.28285712
-0.094285727
-0.031428576
0.031428561
0.094285697
0.15714285
0.22
0.28285712
0.34571427
-0.031428576
0.031428576
0.094285712
0.15714285
0.22
0.28285715
0.34571427
0.40857142
0.031428576
0.094285727
0.15714286
0.22
0.28285715
0.3457143
0.40857142
0.47142857
0.094285697
0.15714285
0.21999998
0.28285712
0.34571427
0.40857142
0.47142854
0.53428566
0.15714285
0.22
0.28285712
0.34571427
0.40857142
0.47142857
0.53428566
0.59714282
-0.22
-0.15714285
-0.094285697
-0.031428576
0.031428576
0.094285727
0.15714285
0.22
-0.15714285
-0.094285697
-0.031428546
0.031428576
0.094285727
0.15714288
0.22
0.28285715
-0.094285697
-0.031428546
0.031428576
0.094285712
0.15714286
0.22000001
0.28285712
0.34571427
-0.031428576
0.031428576
0.094285712
0.15714285
0.22
0.28285715
0.34571427
0.40857142
0.031428576
0.094285727
0.15714286
0.22
0.28285715
0.3457143
0.40857142
0.47142857
0.094285727
0.15714288
0.22000001
0.28285715
0.3457143
0.40857145
0.47142857
0.53428572
0.15714285
0.22
0.28285712
0.34571427
0.40857142
0.47142857
0.53428566
0.59714282
0.22
0.28285715
0.34571427
0.40857142
0.47142857
0.53428572
0.59714282
0.65999997
SCALARS abs_error float 1
LOOKUP_TABLE default
0
0
0
0
0
0
0
0
0
0
0
0
0
0
0
0
0
0
0
0
0
0
0
0
0
0
0
0
0
0
0
0
0
0
0
0
0
0
0
0
0
0
0
0
0
0
0
0
0
0
0
0
0
0
0
0
0
0
0
0
0
0
0
0
0
0
0
0
0
0
0
0
0
0.0018837452
0.0021240711
0.0075083971
0.00045585632
0.0058381706
0.00067143142
0
0
0.0063510239
0.004627794
0.0067317784
0.013093174
0.00011365116
0.0032330528
0
0
0.010810554
0.014710844
0.0035101622
0.0061820596
0.014089912
0.010667026
0
0
0.015933692
0.010621667
0.0049960762
0.0034817681
0.017847732
0.028691541
0
0
0.015006274
0.010990977
0.028941661
0.015405506
0.0063570887
0.00053402036
0
0
0.00042082369
0.0064465255
0.0013238043
0.031498846
0.012608044
0.0021923631
0
0
0
0
0
0
0
0
0
0
0
0
0
0
0
0
0
0
0.0085542202
0.012309104
0.019371539
0.015673906
0.00038121641
0.00099837035
0
0
0.0013041496
0.0042389631
0.028913155
0.0063423812
0.01582735
0.0008222647
0
0
0.0080378056
0.012020126
0.0053171366
0.014402822
0.0074899197
0.012012757
0
0
0.0099399984
0.0055450648
0.024760529
0.015021179
0.034403455
0.0053974837
0
0
0.00084467232
0.013393074
0.032911077
0.027151877
0.0063006803
0.017352834
0
0
0.013234943
0.0072155073
0.0034892149
0.0034984127
0.016872644
0.012936026
0
0
0
0
0
0
0
0
0
0
0
0
0
0
0
0
0
0
0.0016230643
0.013280004
0.0011531115
0.012963951
0.0047952086
0.006871637
0
0
0.015143692
0.014063418
0.0093981773
0.012331434
0.0069452636
0.0045094118
0
0
0.023978174
0.018131241
0.016947158
0.020153429
0.0017509032
0.0036792904
0
0
0.0065173805
0.034197509
0.083386458
0.023820553
0.0031484738
0.014078766
0
0
0.016770571
0.043200813
0.098320626
0.01320532
0.0033421665
0.0027543902
0
0
0.0053179078
0.027278107
0.016961612
0.0060814172
0.016985714
0.0002399087
0
0
0
0
0
0
0
0
0
0
0
0
0
0
0
0
0
0
0.014272749
0.0033191592
0.0039148778
0.0035288036
0.029287759
3.0469149e-05
0
0
0.012516707
0.012594894
0.012398697
0.012923535
0.0082294848
0.0083905831
0
0
0.014575362
0.0055142418
0.03083529
0.003392553
3.067404e-05
0.012810901
0
0
0.0014089346
0.0054861009
0.07339862
0.0048264787
0.011080235
0.012977734
0
0
0.0071190633
0.023031235
0
0
3.3810735e-05
0.0069399476
0
0
0.0039917156
0.0042309985
0.073977008
0.035065472
0.012558252
0.0027143955
0
0
0
0
0
0
0
0
0
0
0
0
0
0
0
0
0
0
0.011336729
0.0071630925
0.015735477
0.014942333
0.014997721
0.0084085092
0
0
0.022981599
0.0021485314
0.0051392801
0.011202924
0.00014261901
0.016562596
0
0
0.022005439
0.0073386542
0.0064858086
0.0023382753
0.0025827587
0.0013080984
0
0
0.013485368
0.017450221
0.020896561
0.025716305
0.0025037676
0.0025039613
0
0
0.020009603
0.0068939179
0.03156814
0.054479241
0.0036538243
0.0080704093
0
0
0.00041041523
0
0.028967559
0.025364071
0.0038908124
9.3460083e-05
0
0
0
0
0
0
0
0
0
0
0
0
0
0
0
0
0
0
0.006554082
0.00027943403
0.0043753237
0.002223473
0.00036670268
0.0026790947
0
0
0.0067073777
0.00089359656
0.015304463
0.0076698214
0.0032616556
0.0003208667
0
0
0.007043276
0.00015556067
0.021660253
0.002801165
0.013122484
0.0049972534
0
0
0.0074638985
0.0035969839
0.0076134801
0.0036531836
0.023184687
0.0085071921
0
0
0.0048139542
0.013301447
0.010082349
0.013089508
0.010589093
0.0062227249
0
0
0.0089520961
0.00088220835
0.0026776493
0.013341427
0.0091789365
0.017377883
0
0
0
0
0
0
0
0
0
0
0
0
0
0
0
0
0
0
0
0
0
0
0
0
0
0
0
0
0
0
0
0
0
0
0
0
0
0
0
0
0
0
0
0
0
0
0
0
0
0
0
0
0
0
0
0
0
0
0
0
0
0
0
0
0
0
0
0
0
0
0
0
0
