# vtk DataFile Version 3.0
WoSt boundary bias detector
ASCII
DATASET STRUCTURED_POINTS
DIMENSIONS 16 16 16
ORIGIN -1.1 -1.1 -1.1
SPACING 0.14666668 0.14666668 0.14666668
POINT_DATA 4096
SCALARS solution_epsilon float 1
LOOKUP_TABLE default
-3.3000002
-3.1533332
-3.0066667
-2.8600001
-2.7133334
-2.5666666
-2.4200001
-2.2733333
-2.1266665
-1.98
-1.8333334
-1.6866666
-1.54
-1.3933333
-1.2466666
-1.1
-3.1533332
-3.0066667
-2.8600001
-2.7133334
-2.5666666
-2.4200001
-2.2733335
-2.1266665
-1.98
-1.8333334
-1.6866667
-1.54
-1.3933333
-1.2466667
-1.0999999
-0.95333338
-3.0066667
-2.8600001
-2.7133334
-2.5666666
-2.4200001
-2.2733335
-2.1266665
-1.98
-1.8333333
-1.6866667
-1.54
-1.3933332
-1.2466667
-1.0999999
-0.9533332
-0.80666667
-2.8600001
-2.7133334
-2.5666666
-2.4200001
-2.2733333
-2.1266665
-1.98
-1.8333333
-1.6866666
-1.54
-1.3933333
-1.2466666
-1.0999999
-0.95333326
-0.80666649
-0.65999997
-2.7133334
-2.5666666
-2.4200001
-2.2733333
-2.1266665
-1.98
-1.8333333
-1.6866666
-1.54
-1.3933333
-1.2466667
-1.0999999
-0.95333326
-0.80666661
-0.65999985
-0.51333332
-2.5666666
-2.4200001
-2.2733335
-2.1266665
-1.98
-1.8333334
-1.6866667
-1.54
-1.3933333
-1.2466667
-1.1
-0.95333326
-0.80666661
-0.65999997
-0.5133332
-0.36666667
-2.4200001
-2.2733335
-2.1266665
-1.98
-1.8333333
-1.6866667
-1.54
-1.3933332
-1.2466667
-1.0999999
-0.95333332
-0.80666655
-0.65999991
-0.51333326
-0.3666665
-0.21999997
-2.2733333
-2.1266665
-1.98
-1.8333333
-1.6866666
-1.54
-1.3933332
-1.2466666
-1.0999999
-0.95333326
-0.80666661
-0.65999985
-0.5133332
-0.36666656
-0.21999979
-0.073333263
-2.1266665
-1.98
-1.8333333
-1.6866666
-1.54
-1.3933333
-1.2466667
-1.0999999
-0.95333326
-0.80666661
-0.65999997
-0.5133332
-0.36666656
-0.21999991
-0.073333144
0.073333383
-1.98
-1.8333334
-1.6866667
-1.54
-1.3933333
-1.2466667
-1.0999999
-0.95333326
-0.80666661
-0.65999997
-0.51333332
-0.36666656
-0.21999991
-0.073333263
0.073333502
0.22000003
-1.8333334
-1.6866667
-1.54
-1.3933333
-1.2466667
-1.1
-0.95333332
-0.80666661
-0.65999997
-0.51333332
-0.36666667
-0.21999991
-0.073333263
0.073333383
0.22000015
0.36666667
-1.6866666
-1.54
-1.3933332
-1.2466666
-1.0999999
-0.95333326
-0.80666655
-0.65999985
-0.5133332
-0.36666656
-0.21999991
-0.073333144
0.073333502
0.22000015
0.36666691
0.51333344
-1.54
-1.3933333
-1.2466667
-1.0999999
-0.95333326
-0.80666661
-0.65999991
-0.5133332
-0.36666656
-0.21999991
-0.073333263
0.073333502
0.22000015
0.36666679
0.51333356
0.66000009
-1.3933333
-1.2466667
-1.0999999
-0.95333326
-0.80666661
-0.65999997
-0.51333326
-0.36666656
-0.21999991
-0.073333263
0.073333383
0.22000015
0.36666679
0.51333344
0.66000021
0.80666673
-1.2466666
-1.0999999
-0.9533332
-0.80666649
-0.65999985
-0.5133332
-0.3666665
-0.21999979
-0.073333144
0.073333502
0.22000015
0.36666691
0.51333356
0.66000021
0.80666697
0.9533335
-1.1
-0.95333338
-0.80666667
-0.65999997
-0.51333332
-0.36666667
-0.21999997
-0.073333263
0.073333383
0.22000003
0.36666667
0.51333344
0.66000009
0.80666673
0.9533335
1.1
-3.1533334
-3.0066667
-2.8600001
-2.7133334
-2.5666666
-2.4200001
-2.2733333
-2.1266665
-1.98
-1.8333334
-1.6866667
-1.54
-1.3933333
-1.2466667
-1.0999999
-0.95333338
-3.0066667
-2.859086
-2.6922131
-2.523092
-2.3397768
-2.2981236
-2.1187334
-2.0445435
-1.8698342
-1.740679
-1.5246065
-1.3869903
-1.2966957
-1.0971627
-1.0003527
-0.80666673
-2.8600001
-2.7341225
-2.5799708
-2.3840711
-2.2650108
-2.1315246
-1.9164127
-1.8636092
-1.6620722
-1.4169824
-1.4252311
-1.2335228
-1.1123848
-0.93735886
-0.75714105
-0.66000003
-2.7133334
-2.6103518
-2.4332476
-2.3022485
-2.0965235
-2.0175748
-1.7913524
-1.7445879
-1.4648275
-1.4563699
-1.1685592
-1.1291491
-1.0104226
-0.78816086
-0.66830176
-0.51333332
-2.5666666
-2.4352486
-2.3211215
-2.1019437
-1.9998127
-1.7926794
-1.7368752
-1.4664832
-1.3674964
-1.2171801
-1.0423713
-0.99972314
-0.8094036
-0.70434314
-0.4793717
-0.36666667
-2.4200001
-2.3123441
-2.0729105
-1.9100053
-1.8861761
-1.7560606
-1.580892
-1.419508
-1.2527156
-1.1143788
-0.89314324
-0.70815116
-0.63617682
-0.49101812
-0.32204339
-0.22000003
-2.2733333
-2.104105
-1.962373
-1.7968681
-1.7111523
-1.5897229
-1.4049767
-1.255378
-1.141031
-0.86496705
-0.80239207
-0.62623686
-0.53776234
-0.27346393
-0.2313759
-0.073333323
-2.1266665
-1.9699081
-1.7604098
-1.7973665
-1.5327981
-1.3290864
-1.2360628
-1.135969
-0.94683576
-0.79829395
-0.68432242
-0.48397949
-0.41374654
-0.24345118
-0.045393609
0.073333383
-1.98
-1.8917222
-1.6777512
-1.4704002
-1.4268306
-1.2348518
-1.0923543
-0.95296508
-0.85421872
-0.60624886
-0.54073942
-0.39199525
-0.17033684
-0.11641909
0.13447881
0.22000003
-1.8333334
-1.7018329
-1.5542445
-1.3938582
-1.2578424
-1.1661725
-0.99274558
-0.8256821
-0.64144129
-0.47006595
-0.394232
-0.22064267
-0.065072574
0.089878105
0.28035396
0.36666667
-1.6866667
-1.5301261
-1.4508911
-1.2256302
-1.0670372
-1.0021952
-0.76143974
-0.68652761
-0.50066358
-0.43430421
-0.2840102
-0.13539807
0.073708855
0.16241749
0.43890348
0.51333332
-1.54
-1.3412367
-1.2521441
-1.1475857
-0.93823272
-0.79443735
-0.65051204
-0.53972918
-0.34358051
-0.20336209
-0.066072777
0.042022895
0.19678988
0.32931235
0.52947283
0.66000009
-1.3933333
-1.2549174
-1.088367
-1.0233943
-0.8227126
-0.61727017
-0.38741615
-0.36154109
-0.2569631
-0.10499771
0.095762677
0.21293074
0.35263854
0.54279727
0.63465041
0.80666673
-1.2466667
-1.0761094
-0.95897084
-0.78205407
-0.608661
-0.49591216
-0.38992819
-0.25331452
-0.06716539
0.068978764
0.22582769
0.28498292
0.56996918
0.67542237
0.78927541
0.95333338
-1.0999999
-0.98563319
-0.8197735
-0.73559594
-0.56300241
-0.41712663
-0.17895511
-0.053065483
0.10487333
0.26274046
0.32745343
0.50117987
0.65406764
0.7981109
0.95517099
1.1000001
-0.95333338
-0.80666673
-0.66000003
-0.51333332
-0.36666667
-0.22000003
-0.073333323
0.073333383
0.22000003
0.36666667
0.51333332
0.66000009
0.80666673
0.95333338
1.1000001
1.2466667
-3.0066667
-2.8599999
-2.7133334
-2.5666666
-2.4200001
-2.2733333
-2.1266665
-1.98
-1.8333333
-1.6866667
-1.54
-1.3933332
-1.2466667
-1.0999999
-0.9533332
-0.80666667
-2.8599999
-2.7014966
-2.5626559
-2.3868144
-2.210295
-2.0987861
-1.9698801
-1.800648
-1.6377078
-1.540584
-1.3770503
-1.2779855
-1.1261499
-0.97927266
-0.8513453
-0.66000003
-2.7133334
-2.5682971
-2.4885936
-2.3918929
-2.1451495
-2.0189869
-1.70389
-1.5781268
-1.5107901
-1.3510078
-1.2674211
-1.0330917
-0.91972959
-0.68362427
-0.67825228
-0.51333332
-2.5666666
-2.3690181
-2.2511437
-2.1439447
-1.9542115
-1.7659093
-1.6423571
-1.5112439
-1.4481994
-1.2863262
-1.1055847
-0.99278271
-0.89369214
-0.67250073
-0.56453633
-0.36666662
-2.4200001
-2.2806442
-2.0764601
-2.04617
-1.8056629
-1.6673788
-1.3987267
-1.4455649
-1.2490946
-1.0948298
-0.99501693
-0.78903073
-0.6659646
-0.46457642
-0.41910353
-0.21999997
-2.2733333
-2.0457506
-2.0054595
-1.9003699
-1.6916399
-1.5664525
-1.4694066
-1.2497119
-1.03833
-1.0093071
-0.78771603
-0.7958501
-0.46439061
-0.46651646
-0.1922411
-0.073333323
-2.1266665
-2.0198109
-1.8251799
-1.6302874
-1.6264994
-1.4042161
-1.2201426
-1.2086941
-1.0064093
-0.69984162
-0.64390725
-0.44083318
-0.36873341
-0.26735011
-0.0067299642
0.073333383
-1.98
-1.8313594
-1.6701204
-1.5047361
-1.3726146
-1.264551
-1.0757357
-0.97458571
-0.80292559
-0.70437443
-0.47574291
-0.4351548
-0.1515975
-0.13255841
-0.026741605
0.22000009
-1.8333333
-1.6462197
-1.5238311
-1.4903129
-1.1973459
-1.1780322
-1.0251178
-0.82193768
-0.70704854
-0.50625551
-0.34666041
-0.34113672
-0.11102752
0.054702792
0.24176414
0.36666673
-1.6866667
-1.5684547
-1.4065316
-1.1408348
-1.1521995
-1.0515406
-0.77529132
-0.67005128
-0.50948113
-0.35531351
-0.30969965
-0.072010532
0.077799417
0.2071318
0.37134328
0.51333338
-1.54
-1.4056691
-1.2508302
-1.0251622
-0.91718692
-0.71582454
-0.68109864
-0.53593034
-0.34942409
-0.18589495
-0.076940022
0.022348864
0.19081745
0.44194251
0.45654038
0.66000003
-1.3933332
-1.2608365
-1.0582594
-0.85890853
-0.89858198
-0.66371423
-0.48715499
-0.37856743
-0.27088723
-0.086270906
0.14750014
0.14216143
0.41212395
0.48353276
0.67193931
0.80666679
-1.2466667
-1.1392423
-0.98142463
-0.84133905
-0.67654282
-0.45924008
-0.32830304
-0.29533589
-0.14956887
0.16118143
0.26366523
0.41510639
0.51088077
0.70609295
0.77416915
0.95333344
-1.0999999
-0.96954364
-0.85312122
-0.63188434
-0.49330148
-0.33468145
-0.20150863
-0.23072924
0.080845341
0.14005603
0.36428261
0.54053533
0.62638944
0.79635847
1.0216105
1.1000001
-0.9533332
-0.84278202
-0.70036602
-0.54823881
-0.36813539
-0.19509706
-0.055167191
0.11438889
0.20224926
0.31116456
0.57522261
0.72187448
0.82756847
0.89780223
1.1140853
1.2466669
-0.80666667
-0.66000003
-0.51333332
-0.36666662
-0.21999997
-0.073333323
0.073333383
0.22000009
0.36666673
0.51333338
0.66000003
0.80666679
0.95333344
1.1000001
1.2466669
1.3933334
-2.8600001
-2.7133331
-2.5666666
-2.4200001
-2.2733333
-2.1266665
-1.9799999
-1.8333333
-1.6866666
-1.54
-1.3933333
-1.2466666
-1.0999999
-0.95333326
-0.80666649
-0.65999997
-2.7133331
-2.5094225
-2.3381722
-2.3199289
-2.0913813
-2.0460854
-1.8923532
-1.7156718
-1.5298154
-1.4548994
-1.2858436
-1.0499094
-0.84044284
-0.77723342
-0.61804605
-0.51333332
-2.5666666
-2.4952002
-2.2748225
-1.8974901
-1.9874386
-1.8496335
-1.7704762
-1.4973489
-1.3920233
-1.1621176
-1.0878375
-0.86855519
-0.72005641
-0.71495861
-0.62344998
-0.36666662
-2.4200001
-2.2320964
-2.0776045
-1.9752012
-1.8478185
-1.6238725
-1.5773892
-1.3664223
-1.2781551
-1.1186402
-0.86810154
-0.77749377
-0.62353557
-0.51558721
-0.38739145
-0.21999991
-2.2733333
-2.0808432
-1.8590487
-1.824935
-1.6843742
-1.5438166
-1.4150399
-1.2116668
-1.1133078
-0.91620362
-0.77337337
-0.73734748
-0.53604561
-0.30151698
-0.26294893
-0.073333263
-2.1266665
-1.9126991
-1.8051332
-1.7976818
-1.6572725
-1.3200696
-1.2902967
-1.1255127
-0.8926481
-0.74497533
-0.73422235
-0.46051669
-0.40917742
-0.23306441
-0.16731051
0.073333383
-1.9799999
-1.7912599
-1.635733
-1.5824516
-1.5520386
-1.4290538
-1.0431453
-1.0620606
-0.83229291
-0.5982517
-0.43416685
-0.45936289
-0.1322279
-0.13991216
0.09382879
0.22000009
-1.8333333
-1.6842307
-1.5394334
-1.4889258
-1.1935955
-1.1144011
-0.91425717
-0.70791686
-0.71678472
-0.40341932
-0.33474076
-0.20573308
-0.044173084
0.14798528
0.25321183
0.36666679
-1.6866666
-1.5477185
-1.3482456
-1.2634674
-1.0990444
-0.96133357
-0.82683152
-0.65055275
-0.60159612
-0.34314278
-0.19296031
0.068474151
0.0066240467
0.25012684
0.37341124
0.51333344
-1.54
-1.4695092
-1.2752185
-1.2124963
-1.0128171
-0.76034462
-0.70376837
-0.50013971
-0.38669974
-0.21372283
-0.068052016
0.14483638
0.17290489
0.35054126
0.49474698
0.66000009
-1.3933333
-1.2425625
-1.1019293
-1.0145538
-0.86282444
-0.6284489
-0.52338034
-0.3731654
-0.21730238
-0.096516378
0.082562342
0.21153337
0.36089712
0.54967082
0.7336455
0.80666673
-1.2466666
-1.1758678
-0.90025991
-0.74888676
-0.68886578
-0.4973968
-0.35030648
-0.21213
-0.14629211
0.095684603
0.21931091
0.37511155
0.58284414
0.62133193
0.86101788
0.9533335
-1.0999999
-1.0303487
-0.85235107
-0.66946566
-0.48586223
-0.44257888
-0.19945408
-0.021290103
0.053544112
0.13940945
0.4959701
0.50818372
0.67532605
0.7925095
0.92211413
1.1000001
-0.95333326
-0.76188684
-0.6849618
-0.54822713
-0.39569622
-0.18496051
-0.026360344
0.072048634
0.16744284
0.38375881
0.51239073
0.67532438
0.85128695
0.95106959
1.1507611
1.2466668
-0.80666649
-0.68132538
-0.51024443
-0.32123297
-0.2753289
-0.07096111
0.12351821
0.18419068
0.47248197
0.43854105
0.67830807
0.84742028
0.95776087
1.0405109
1.2649513
1.3933336
-0.65999997
-0.51333332
-0.36666662
-0.21999991
-0.073333263
0.073333383
0.22000009
0.36666679
0.51333344
0.66000009
0.80666673
0.9533335
1.1000001
1.2466668
1.3933336
1.5400001
-2.7133334
-2.5666666
-2.4200001
-2.2733333
-2.1266665
-1.98
-1.8333333
-1.6866666
-1.54
-1.3933333
-1.2466667
-1.0999999
-0.95333326
-0.80666661
-0.65999985
-0.51333332
-2.5666666
-2.4386921
-2.2554398
-2.0528915
-2.0313361
-1.8027333
-1.7228147
-1.4941335
-1.342067
-1.2353336
-1.1897769
-0.95892245
-0.81140566
-0.70153314
-0.52185762
-0.36666667
-2.4200001
-2.2991984
-2.1321726
-1.9505208
-1.9320349
-1.6389369
-1.4529371
-1.3583701
-1.2479377
-1.1472243
-0.92951047
-0.76673472
-0.6139971
-0.5425446
-0.31311795
-0.21999997
-2.2733333
-2.1663299
-2.0079634
-1.7944784
-1.729551
-1.5616376
-1.4494445
-1.1347458
-1.1993619
-0.95825249
-0.84668148
-0.65974104
-0.44904867
-0.30885971
-0.23462123
-0.073333263
-2.1266665
-1.9604554
-1.8152535
-1.6207514
-1.544178
-1.4330432
-1.1546454
-0.97861737
-0.90195084
-0.72163481
-0.65908682
-0.52739918
-0.3362397
-0.2135773
-0.096198551
0.073333383
-1.98
-1.7807857
-1.7917526
-1.5259213
-1.3299247
-1.275578
-1.0843861
-0.95103377
-0.79404932
-0.56376165
-0.45437071
-0.36802563
-0.3024967
-0.041145336
0.067077152
0.22000003
-1.8333333
-1.7674127
-1.4983011
-1.4701252
-1.1745263
-1.0887231
-1.0171955
-0.83150208
-0.82262558
-0.56249374
-0.47522169
-0.10664944
-0.11191442
0.058267169
0.19131385
0.36666673
-1.6866666
-1.5264686
-1.47899
-1.2643688
-1.1475683
-1.0460855
-0.86054885
-0.61973315
-0.58014047
-0.36507979
-0.26775771
-0.028426411
0.038139164
0.20268415
0.41113931
0.51333344
-1.54
-1.4022199
-1.3211275
-1.0959013
-0.872886
-0.7684564
-0.63495278
-0.48710167
-0.37474009
-0.22140203
-0.009037287
0.035788141
0.19889873
0.39910638
0.48835537
0.66000009
-1.3933333
-1.2802267
-1.1743593
-0.96457618
-0.79422003
-0.59954983
nan
nan
nan
nan
0.074450947
0.19204852
0.33918282
0.48160517
0.68953788
0.80666673
-1.2466667
-1.0791502
-1.0285466
-0.89823413
-0.68161064
-0.502235
nan
nan
nan
nan
0.25190642
0.29042143
0.51298678
0.6867398
0.8633886
0.95333338
-1.0999999
-0.92925733
-0.91152054
-0.7071113
-0.55192441
-0.35558745
nan
nan
nan
nan
0.34564969
0.53884321
0.6515553
0.77811003
0.96823901
1.1000001
-0.95333326
-0.79725122
-0.73085362
-0.64220583
-0.38133982
-0.23003648
-0.15169643
0.052181244
0.20669983
0.385189
0.52953219
0.76843476
0.83946794
0.78627527
1.1227971
1.2466668
-0.80666661
-0.66332537
-0.53920311
-0.39603505
-0.10106818
-0.0072739236
0.079471566
0.26486406
0.3887603
0.45997319
0.73215938
0.76329845
1.0059943
1.1677872
1.3150049
1.3933334
-0.65999985
-0.5196591
-0.40451401
-0.26699999
-0.046041414
0.13930491
0.28082889
0.34196901
0.49275503
0.6456303
0.80988073
0.93037218
1.1487246
1.2751907
1.4207082
1.5400002
-0.51333332
-0.36666667
-0.21999997
-0.073333263
0.073333383
0.22000003
0.36666673
0.51333344
0.66000009
0.80666673
0.95333338
1.1000001
1.2466668
1.3933334
1.5400002
1.6866667
-2.5666666
-2.4200001
-2.2733335
-2.1266665
-1.98
-1.8333334
-1.6866666
-1.54
-1.3933333
-1.2466667
-1.1
-0.95333326
-0.80666661
-0.65999997
-0.5133332
-0.36666667
-2.4200001
-2.2822866
-2.1186848
-1.9534996
-1.8439995
-1.5956044
-1.5695796
-1.3827482
-1.283318
-1.0797405
-0.95645082
-0.80990022
-0.72950548
-0.48803341
-0.44406217
-0.22000003
-2.2733335
-2.0991578
-1.9889606
-1.9311069
-1.6338106
-1.6056218
-1.435786
-1.145069
-1.1233437
-0.94640779
-0.88282865
-0.60526305
-0.52359229
-0.35372168
-0.22097875
-0.073333323
-2.1266665
-1.9863478
-1.9005742
-1.7103661
-1.4995203
-1.3876598
-1.2410119
-1.152306
-1.0262215
-0.76213646
-0.65220445
-0.46936798
-0.31236255
-0.22309482
-0.091096215
0.073333383
-1.98
-1.8686049
-1.6504102
-1.4951835
-1.4061599
-1.2568527
-1.195388
-0.99758047
-0.89866698
-0.68620485
-0.54498076
-0.37767491
-0.32749915
-0.043836024
0.13235293
0.22000003
-1.8333334
-1.6844974
-1.4698843
-1.3806523
-1.3273767
-1.1937947
-0.86102265
-0.88064665
-0.69401145
-0.57367438
-0.37287977
-0.18263882
-0.10454097
0.071585722
0.23458828
0.36666667
-1.6866666
-1.5823642
-1.4500101
-1.3107685
-1.1445634
-0.94984895
-0.80179864
-0.6767593
-0.57391804
-0.25065616
-0.19520429
-0.01277011
-0.0022059684
0.22450876
0.39410397
0.51333338
-1.54
-1.4247518
-1.2271392
-1.0974692
-1.0221184
-0.87413907
-0.67437202
-0.40801978
-0.44540021
-0.27437899
-0.1731932
0.19900724
0.19969445
0.41422564
0.45393693
0.66000009
-1.3933333
-1.2662048
-1.1721984
-0.97146696
-0.67080802
-0.59856117
-0.51027507
-0.34440976
-0.22034426
-0.1491479
0.1572329
0.33781752
0.34913123
0.46192402
0.7418797
0.80666673
-1.2466667
-1.069178
-0.97653103
-0.7767787
-0.54333085
-0.49737296
nan
nan
nan
nan
0.20527835
0.36784172
0.54757458
0.68615985
0.77893263
0.95333338
-1.1
-0.98542744
-0.79796398
-0.55512273
-0.56517011
-0.32990035
nan
nan
nan
nan
0.38596767
0.44525
0.62695408
0.84178233
0.9579708
1.1
-0.95333326
-0.7564069
-0.57518941
-0.51963031
-0.34070891
-0.31600782
nan
nan
nan
nan
0.50932008
0.64266491
0.7413581
0.96847951
1.1334374
1.2466668
-0.80666661
-0.66062349
-0.58891672
-0.36485094
-0.2764881
-0.032972936
nan
nan
nan
nan
0.6471172
0.77389914
0.85981423
1.2480036
1.2785115
1.3933334
-0.65999997
-0.47841597
-0.31704953
-0.1624544
-0.075560011
0.106877
0.22292331
nan
nan
0.62218428
0.81870323
1.0396944
1.1261462
1.206229
1.4359072
1.5400001
-0.5133332
-0.38200867
-0.22325884
-0.15312201
0.16401964
0.20622456
0.36607733
0.53778112
0.67886269
0.78352839
0.94462097
1.1878848
1.2795089
1.369095
1.5167593
1.6866668
-0.36666667
-0.22000003
-0.073333323
0.073333383
0.22000003
0.36666667
0.51333338
0.66000009
0.80666673
0.95333338
1.1
1.2466668
1.3933334
1.5400001
1.6866668
1.8333334
-2.4200001
-2.2733333
-2.1266668
-1.98
-1.8333333
-1.6866667
-1.54
-1.3933332
-1.2466667
-1.0999999
-0.95333332
-0.80666655
-0.65999991
-0.51333326
-0.3666665
-0.21999997
-2.2733333
-2.0731702
-1.8997707
-1.8844235
-1.6626778
-1.562495
-1.358062
-1.2730714
-1.1222956
-1.0478021
-0.78887737
-0.65362924
-0.46877933
-0.39425793
-0.22830473
-0.073333323
-2.1266668
-1.9294997
-1.8115312
-1.7450455
-1.4415253
-1.4474558
-1.2587458
-1.1831077
-0.92715019
-0.78439188
-0.71561122
-0.50211626
-0.41062796
-0.11751992
-0.13199799
0.073333383
-1.98
-1.7711016
-1.7290632
-1.4650186
-1.3278036
-1.1216314
-1.0098608
-1.0248208
-0.79746258
-0.59825003
-0.55085909
-0.41431135
-0.25384402
-0.035307951
0.051328614
0.22000009
-1.8333333
-1.7304916
-1.4582747
-1.4107864
-1.2451365
-1.1426687
-1.0233531
-0.87353468
-0.72160643
-0.50464547
-0.38625574
-0.35418916
-0.054794356
0.043977298
0.21436915
0.36666673
-1.6866667
-1.5296259
-1.358427
-1.2539085
-1.0947742
-0.92116559
-0.86018997
-0.70276868
-0.43027827
-0.36990193
-0.22207806
-0.14266859
0.0096857958
0.18833949
0.42437783
0.51333338
-1.54
-1.3894129
-1.2140659
-1.1268891
-0.8964982
-0.79723394
-0.65051395
-0.451821
-0.40362754
-0.21452014
0.017365864
-0.035326708
0.21438374
0.44172612
0.53359181
0.66000009
-1.3933332
-1.2558095
-1.1780096
-0.87377322
-0.74292421
-0.67371649
-0.49014428
-0.36352837
-0.22389427
-0.064490542
0.074127518
0.22988929
0.28121623
0.62741804
0.60373706
0.80666679
-1.2466667
-1.1043872
-0.88777328
-0.84447342
-0.68764293
-0.59532863
-0.37025818
nan
nan
0.10693175
0.17665391
0.31817642
0.61916471
0.68168205
0.73481423
0.95333344
-1.0999999
-0.97682744
-0.8832683
-0.69406319
-0.50973177
-0.40831968
-0.22894609
nan
nan
0.22758545
0.40572006
0.52600634
0.71365917
0.68075335
0.95492303
1.1000001
-0.95333332
-0.87430072
-0.68519092
-0.58904517
-0.25413588
-0.18320526
nan
nan
nan
nan
0.5469532
0.75266099
0.87937266
0.90230191
1.1286906
1.2466667
-0.80666655
-0.72005916
-0.44046572
-0.30432546
-0.16783851
-0.081042737
nan
nan
nan
nan
0.66442579
0.76423049
0.99462527
1.0957594
1.25397
1.3933334
-0.65999991
-0.52672154
-0.28741667
-0.24716717
-0.023336757
nan
nan
nan
nan
nan
nan
1.0219482
1.0917743
1.2264862
1.4020104
1.5400002
-0.51333326
-0.45117661
-0.20675245
-0.12037233
0.12927951
0.22148913
0.35983342
nan
nan
0.79891253
0.89875138
1.0875423
1.2225827
1.3642436
1.5281477
1.6866667
-0.3666665
-0.23220551
-0.092332944
0.12244692
0.2286135
0.34756988
0.51537317
0.64873767
0.76988035
0.927145
1.1408014
1.2421278
1.3927182
1.5279359
1.6671762
1.8333335
-0.21999997
-0.073333323
0.073333383
0.22000009
0.36666673
0.51333338
0.66000009
0.80666679
0.95333344
1.1000001
1.2466667
1.3933334
1.5400002
1.6866667
1.8333335
1.98
-2.2733333
-2.1266665
-1.98
-1.8333333
-1.6866666
-1.54
-1.3933332
-1.2466666
-1.0999999
-0.95333326
-0.80666661
-0.65999985
-0.5133332
-0.36666656
-0.21999979
-0.073333263
-2.1266665
-2.0068471
-1.8528029
-1.6538333
-1.5231317
-1.3405701
-1.2435596
-1.1273319
-0.93777615
-0.79158127
-0.68429703
-0.52483451
-0.31525972
-0.23526818
-0.073863119
0.073333383
-1.98
-1.7834263
-1.7021731
-1.6130322
-1.4484922
-1.3030884
-1.0894645
-0.95890826
-0.82068288
-0.59237683
-0.48718607
-0.30885547
-0.26132834
-0.049111053
0.081405953
0.22000009
-1.8333333
-1.6826011
-1.528295
-1.4630765
-1.3839927
-1.1070451
nan
-0.82982367
-0.63718897
nan
-0.38578615
-0.27347878
-0.034287378
0.074047431
0.22840594
0.36666679
-1.6866666
-1.5340071
-1.317307
-1.1530478
-1.0864191
-0.96016425
nan
-0.64910424
-0.50654137
nan
-0.22025456
-0.051720399
-0.094695121
0.26202476
0.31663981
0.51333344
-1.54
-1.3235614
-1.2050647
-1.1301886
-0.93480819
-0.80582047
nan
-0.49925187
-0.36838865
nan
-0.075172
0.097257577
0.14649178
0.38727644
0.44446662
0.66000009
-1.3933332
-1.2333848
-1.1178609
-0.99579871
-0.83900404
-0.62701333
nan
nan
nan
nan
0.078737959
0.19795121
0.40949062
0.45017806
0.57739222
0.80666679
-1.2466666
-1.0906619
-0.88144904
-0.81261462
-0.6248644
-0.53807253
nan
nan
nan
nan
0.18172269
0.33697569
0.53646803
0.45640823
0.8406049
0.9533335
-1.0999999
-0.97085696
-0.88835472
-0.66519868
-0.47412363
-0.3864623
nan
nan
nan
nan
0.25729293
0.51517314
0.67740738
0.81113726
0.95091486
1.1000001
-0.95333326
-0.80251789
-0.7520867
-0.5285269
-0.43453264
-0.16871624
-0.051566098
nan
nan
0.35160235
0.50975031
0.63273519
0.83129805
0.94275326
1.1288397
1.2466668
-0.80666661
-0.65857869
-0.50394517
-0.35309255
-0.23248433
-0.038866814
nan
nan
nan
nan
0.69475895
0.83497477
0.9884004
1.1459427
1.2594941
1.3933334
-0.65999985
-0.55292845
-0.48797739
-0.17979614
-0.080517679
0.074239582
nan
nan
nan
nan
0.82694018
1.09536
1.1259063
1.3233855
1.4238796
1.5400002
-0.5133332
-0.35592958
-0.28650859
-0.027054951
0.011761153
0.24782594
0.3919076
nan
nan
0.79829031
0.92233372
1.0557226
1.2273324
1.4088888
1.5595322
1.6866668
-0.36666656
-0.20427513
-0.034617819
0.011324885
0.29117948
0.37872106
0.55493402
0.68080908
0.78361475
0.91507435
1.0343722
1.3659784
1.2927775
1.4939939
1.6568136
1.8333335
-0.21999979
-0.086130172
0.087446891
0.19657114
0.39991558
0.52452481
0.68080378
0.85271698
0.95666444
1.0746648
1.238852
1.3773928
1.6267503
1.7319368
1.8092387
1.9800003
-0.073333263
0.073333383
0.22000009
0.36666679
0.51333344
0.66000009
0.80666679
0.9533335
1.1000001
1.2466668
1.3933334
1.5400002
1.6866668
1.8333335
1.9800003
2.1266668
-2.1266665
-1.9799999
-1.8333334
-1.6866666
-1.54
-1.3933333
-1.2466666
-1.0999999
-0.95333326
-0.80666661
-0.65999997
-0.5133332
-0.36666656
-0.21999991
-0.073333144
0.073333383
-1.9799999
-1.8311607
-1.6959115
-1.5404525
-1.3482968
-1.2657933
-1.1020284
-0.95701486
-0.75515002
-0.67148268
-0.48078302
-0.43385282
-0.19238836
-0.10567328
0.077771038
0.22000003
-1.8333334
-1.7032423
-1.5131507
-1.2899789
-1.2710171
-1.0996116
-0.96355277
-0.77184445
-0.67690688
-0.51359349
-0.39727119
-0.28727067
0.0022584223
0.087700412
0.24200056
0.36666673
-1.6866666
-1.4573442
-1.4386586
-1.3091336
-1.0058371
-0.98532611
nan
-0.67441869
-0.50553697
nan
-0.18402784
-0.1272673
0.091280654
0.2004151
0.39195403
0.51333344
-1.54
-1.4839102
-1.3106732
-1.2605294
-1.0766466
nan
nan
-0.52660656
-0.37302622
nan
nan
0.067956343
0.18360467
0.34779498
0.47386497
0.66000009
-1.3933333
-1.3288469
-1.0618441
-0.9428674
-0.78957725
nan
nan
nan
nan
nan
nan
0.23133628
0.27375489
0.52089697
0.6245085
0.80666673
-1.2466666
-1.1154445
-0.92907435
-0.78767693
-0.67827737
nan
nan
nan
nan
nan
nan
0.43631276
0.52467096
0.69546843
0.85798472
0.95333344
-1.0999999
-1.0175971
-0.85036457
-0.51964182
-0.5687322
-0.3642768
nan
nan
nan
nan
0.36574706
0.5484978
0.64996123
0.79787743
0.96858835
1.1000001
-0.95333326
-0.79403204
-0.59387553
-0.55036181
-0.42801699
-0.22544509
nan
nan
nan
nan
0.50774479
0.69274265
0.72817129
0.95759207
1.1159856
1.2466668
-0.80666661
-0.60982531
-0.36972293
-0.44858852
-0.25484735
-0.035158403
nan
nan
nan
nan
0.62674522
0.95172727
0.98529065
1.0934089
1.1640469
1.3933334
-0.65999997
-0.48339421
-0.32737193
-0.19865528
0.036988154
0.05235105
0.17113031
0.34826556
0.51880395
0.61392373
0.87659442
0.94071466
1.0385259
1.1962335
1.391988
1.5400001
-0.5133332
-0.29155934
-0.17050661
-0.01620584
0.088454433
0.27827212
0.36279586
0.50400054
0.6341868
0.74261284
0.92796797
1.0421965
1.2329602
1.4668913
1.5417309
1.6866668
-0.36666656
-0.25836191
-0.047082473
0.059672888
0.22359137
0.48176998
0.4880864
0.66815221
0.79342288
0.99759346
1.1541122
1.2457385
1.4211566
1.653015
1.6938545
1.8333335
-0.21999991
-0.12589888
0.059460822
0.19073331
0.40010366
0.55838853
0.69437718
0.7895205
0.99131989
1.0743126
1.1752632
1.4147313
1.5056205
1.7467765
1.8262173
1.9800001
-0.073333144
0.075962737
0.25467414
0.45359331
0.54696321
0.70833212
0.82764244
0.94612461
1.05276
1.2426933
1.3911008
1.5583534
1.7435248
1.8905897
1.9493413
2.126667
0.073333383
0.22000003
0.36666673
0.51333344
0.66000009
0.80666673
0.95333344
1.1000001
1.2466668
1.3933334
1.5400001
1.6866668
1.8333335
1.9800001
2.126667
2.2733335
-1.98
-1.8333333
-1.6866667
-1.54
-1.3933333
-1.2466667
-1.0999999
-0.95333326
-0.80666661
-0.65999997
-0.51333332
-0.36666656
-0.21999991
-0.073333263
0.073333502
0.22000003
-1.8333333
-1.7014089
-1.5629922
-1.4305866
-1.2633065
-1.1095443
-0.98712111
-0.75548595
-0.66679037
-0.54911083
-0.39302376
-0.21794708
0.036489762
0.11485139
0.23285951
0.36666667
-1.6866667
-1.5472193
-1.3126088
-1.2897254
-1.1033041
-1.0309334
-0.81735647
-0.66301227
-0.59833515
-0.32249942
-0.21630119
-0.032922372
0.038543314
0.1803101
0.32081854
0.51333338
-1.54
-1.3970808
-1.2907
-1.0711488
-0.89078373
-0.89600098
-0.65452337
-0.4823769
-0.35442975
-0.20432991
-0.078675352
0.019290801
0.31687269
0.30610332
0.47047484
0.66000009
-1.3933333
-1.2744616
-1.1542056
-0.94759482
-0.906542
-0.65622377
-0.49204656
-0.34875932
-0.21547173
-0.075869195
0.032176331
0.21833614
0.47565934
0.49035725
0.72368157
0.80666673
-1.2466667
-1.1323196
-0.97563893
-0.75009125
-0.6341427
-0.53311104
nan
nan
nan
nan
0.19377859
0.32107916
0.42211735
0.65136999
0.80150551
0.95333338
-1.0999999
-0.98175901
-0.82313991
-0.66733909
-0.5137133
nan
nan
nan
nan
nan
nan
0.49303192
0.58772385
0.81323981
0.91394812
1.1000001
-0.95333326
-0.90097123
-0.64796859
-0.46800193
-0.31902653
nan
nan
nan
nan
nan
nan
0.65697759
0.85146236
0.94948649
1.0860285
1.2466668
-0.80666661
-0.63080245
-0.50826198
-0.29978344
-0.23791437
-0.14824001
nan
nan
nan
nan
0.6797635
0.91530502
1.0245956
0.98387873
1.3139207
1.3933334
-0.65999997
-0.47778237
-0.35957307
-0.2223119
-0.06390962
0.073501758
nan
nan
nan
nan
0.8355751
0.90563744
0.95820659
1.1497641
1.4357727
1.5400001
-0.51333332
-0.33094892
-0.24029423
-0.097136989
-0.028031643
0.17686726
0.33415607
0.48885074
0.64150101
0.75957513
0.98079711
1.0891513
1.2573124
1.4374876
1.4752271
1.6866667
-0.36666656
-0.13255455
-0.055539973
0.058229756
0.18878287
0.32013756
0.51814747
0.69437033
0.78663009
0.91529995
1.1332971
1.1672592
1.3955674
1.5551555
1.7875593
1.8333335
-0.21999991
-0.04368367
-0.017202305
0.18462627
0.48716792
0.45152757
0.60558617
0.85324359
0.87915748
1.0442777
1.2376714
1.3787043
1.6032417
1.7140893
1.8199451
1.9800001
-0.073333263
0.051947404
0.22922269
0.33836117
0.57186157
0.70605344
0.86604476
0.99799067
1.087981
1.2070022
1.394065
1.4813854
1.6855984
1.82836
1.9955804
2.1266668
0.073333502
0.21907099
0.36003441
0.48247352
0.65175217
0.81680638
0.81036377
1.1161397
1.2244631
1.3977468
1.5295213
1.6569227
1.8406205
1.9810196
2.1906137
2.2733335
0.22000003
0.36666667
0.51333338
0.66000009
0.80666673
0.95333338
1.1000001
1.2466668
1.3933334
1.5400001
1.6866667
1.8333335
1.9800001
2.1266668
2.2733335
2.4200001
-1.8333334
-1.6866666
-1.5400001
-1.3933333
-1.2466667
-1.1
-0.95333326
-0.80666661
-0.65999997
-0.51333332
-0.36666667
-0.21999991
-0.073333263
0.073333383
0.22000015
0.36666667
-1.6866666
-1.6037024
-1.3593485
-1.1835994
-1.1399441
-0.92602748
-0.85703522
-0.69057161
-0.55885661
-0.36577296
-0.24195623
0.0050342595
0.028179403
0.25084049
0.40575001
0.51333332
-1.5400001
-1.3730224
-1.1928906
-1.0980726
-1.0641385
-0.85808581
-0.72347432
-0.4812772
-0.35253367
-0.24477591
-0.019272003
0.0871666
0.16353531
0.28364456
0.42493987
0.66000003
-1.3933333
-1.2623354
-1.0849031
-0.88467526
-0.81467056
-0.59478289
-0.57154018
-0.36599615
-0.13221546
-0.053866368
0.14776616
0.19522226
0.44494084
0.43366995
0.66598374
0.80666673
-1.2466667
-1.1528955
-0.92552578
-0.79355806
-0.69330567
-0.53753585
-0.34840432
nan
nan
0.097203255
0.22814764
0.30515677
0.53303707
0.69216281
0.83008426
0.95333338
-1.1
-1.0066489
-0.82528752
-0.675111
-0.51699859
-0.36380807
nan
nan
nan
nan
0.34723371
0.53419709
0.68517798
0.81230193
0.93048942
1.1
-0.95333326
-0.82563752
-0.68096477
-0.58095133
-0.32781354
nan
nan
nan
nan
nan
nan
0.62432814
0.83432335
0.90552181
1.1092291
1.2466667
-0.80666661
-0.66362542
-0.40453881
-0.3659403
-0.19699726
nan
nan
nan
nan
nan
nan
0.79288459
0.88960212
1.0090022
1.2496016
1.3933334
-0.65999997
-0.5506053
-0.32852346
-0.32748315
-0.058119126
0.049210023
nan
nan
nan
nan
0.82312852
1.0017544
1.0956209
1.3457549
1.3820246
1.5400001
-0.51333332
-0.36331406
-0.2849547
-0.00080470298
0.11382113
0.25820103
0.36023182
nan
nan
0.78856927
0.8914451
1.0789616
1.2954925
1.3485606
1.5416524
1.6866667
-0.36666667
-0.20413545
-0.063387863
0.20733631
0.13111882
0.43863979
0.56541765
0.57452482
0.83804512
0.9632656
1.1189423
1.1464218
1.300006
1.5276128
1.6917861
1.8333334
-0.21999991
-0.042022701
-0.037938785
0.19671439
0.38675323
0.47132894
0.70348334
0.94667345
0.93718773
1.0981926
1.2618588
1.3624523
1.4885765
1.8174045
1.7707584
1.9800001
-0.073333263
0.11934382
0.18333098
0.42001516
0.62272894
0.6174913
0.8321892
0.95448011
1.1179333
1.288357
1.3703713
1.5089768
1.7129564
1.70411
2.010088
2.1266668
0.073333383
0.25469527
0.42221412
0.44446903
0.65149003
0.7803064
0.97599858
1.1376984
1.3092148
1.3699
1.4717895
1.6897231
1.7035816
1.9476676
2.1427619