# vtk DataFile Version 3.0
WoSt Poisson solution ã?structured grid
ASCII
DATASET STRUCTURED_POINTS
DIMENSIONS 8 8 8
ORIGIN -1.1 -1.1 -1.1
SPACING 0.31428573 0.31428573 0.31428573
POINT_DATA 512
SCALARS solution float 1
LOOKUP_TABLE default
-3.3000002
-2.9857144
-2.6714287
-2.3571429
-2.0428572
-1.7285714
-1.4142858
-1.1
-2.9857144
-2.6714287
-2.3571429
-2.0428572
-1.7285714
-1.4142857
-1.1
-0.78571427
-2.6714287
-2.3571429
-2.0428572
-1.7285714
-1.4142857
-1.0999999
-0.78571433
-0.47142857
-2.3571429
-2.0428572
-1.7285714
-1.4142858
-1.1
-0.78571427
-0.47142863
-0.15714288
-2.0428572
-1.7285714
-1.4142857
-1.1
-0.78571427
-0.47142851
-0.15714288
0.15714288
-1.7285714
-1.4142857
-1.0999999
-0.78571427
-0.47142851
-0.15714276
0.15714288
0.47142863
-1.4142858
-1.1
-0.78571433
-0.47142863
-0.15714288
0.15714288
0.47142851
0.78571427
-1.1
-0.78571427
-0.47142857
-0.15714288
0.15714288
0.47142863
0.78571427
1.1
-2.9857144
-2.6714287
-2.3571429
-2.0428572
-1.7285714
-1.4142857
-1.1
-0.78571427
-2.6714287
-2.3546238
-2.1495411
-1.8158067
-1.5126654
-1.153302
-0.78870243
-0.47142851
-2.3571429
-2.0258789
-1.8704487
-1.5453558
-1.150802
-0.75469702
-0.48218647
-0.15714282
-2.0428572
-1.7310338
-1.6066723
-1.3145392
-0.90573817
-0.55765617
-0.22042361
0.15714288
-1.7285714
-1.5185542
-1.3101096
-1.0099242
-0.67890155
-0.19257197
0.11375906
0.47142863
-1.4142857
-1.0781541
-1.0035982
-0.73566127
-0.16921712
0.11591781
0.49972069
0.78571439
-1.1
-0.85515487
-0.59513915
-0.21325867
0.15140498
0.45286834
0.82349712
1.1
-0.78571427
-0.47142851
-0.15714282
0.15714288
0.47142863
0.78571439
1.1
1.4142858
-2.6714287
-2.3571429
-2.0428572
-1.7285714
-1.4142857
-1.0999999
-0.78571433
-0.47142857
-2.3571429
-2.0792401
-1.8243791
-1.5640353
-1.2168529
-0.71915662
-0.53463453
-0.15714282
-2.0428572
-1.8390696
-1.5615505
-1.2632879
-1.0011364
-0.50432891
-0.24538068
0.15714288
-1.7285714
-1.4928644
-1.4818674
-1.138375
-0.67519718
-0.23078391
0.12216683
0.47142857
-1.4142857
-1.1833518
-1.187247
nan
nan
0.15330915
0.54496145
0.78571433
-1.0999999
-0.87134421
-0.71134001
nan
nan
0.76811087
0.91057277
1.1000001
-0.78571433
-0.42301258
-0.26951694
0.036380976
0.57576156
0.86189848
1.1494943
1.4142857
-0.47142857
-0.15714282
0.15714288
0.47142857
0.78571433
1.1000001
1.4142857
1.7285714
-2.3571429
-2.0428572
-1.7285714
-1.4142858
-1.1
-0.78571427
-0.47142863
-0.15714288
-2.0428572
-1.8396844
-1.6006144
-1.3921642
-0.91292959
-0.51519793
-0.18517326
0.15714288
-1.7285714
-1.5521857
-1.4816669
-1.3395567
-1.0404003
-0.18061377
0.2114625
0.47142857
-1.4142858
-1.2787218
-1.2932134
nan
nan
0.19806907
0.59827656
0.78571427
-1.1
-1.0054656
-0.98737824
-1.0868691
0.50482255
0.86128056
0.90498787
1.1
-0.78571427
-0.63123351
-0.25269288
nan
nan
1.0465466
1.1177658
1.4142858
-0.47142863
-0.092275724
0.20093326
0.80688602
1.4281725
1.3566095
1.5185862
1.7285714
-0.15714288
0.15714288
0.47142857
0.78571427
1.1
1.4142858
1.7285714
2.0428572
-2.0428572
-1.7285714
-1.4142857
-1.1
-0.78571427
-0.47142851
-0.15714288
0.15714288
-1.7285714
-1.4043045
-1.2799814
-1.0692893
-0.6910395
-0.19636402
0.13971478
0.47142863
-1.4142857
-1.2919792
-1.3597096
nan
nan
0.32497716
0.50693965
0.78571433
-1.1
-1.002996
-0.95327997
nan
nan
0.90199429
1.004361
1.1
-0.78571427
-0.49818432
-0.48025271
nan
nan
1.2190857
1.1932359
1.4142858
-0.47142851
-0.22302257
0.13456455
1.0109549
1.3500677
1.4972199
1.5244544
1.7285715
-0.15714288
0.16877271
0.59510195
0.93025011
1.2896906
1.6074145
1.7897437
2.0428572
0.15714288
0.47142863
0.78571433
1.1
1.4142858
1.7285715
2.0428572
2.3571429
-1.7285714
-1.4142857
-1.0999999
-0.78571427
-0.47142851
-0.15714276
0.15714288
0.47142863
-1.4142857
-1.2033473
-0.93707949
-0.74159986
-0.27687153
0.11051175
0.46126321
0.78571439
-1.0999999
-0.81385577
-0.95011002
nan
nan
0.58461618
0.85469842
1.1000001
-0.78571427
-0.64503807
-0.63967353
nan
nan
1.1971523
1.3226142
1.4142858
-0.47142851
-0.22875553
0.0097324923
nan
nan
1.5344397
1.6012174
1.7285715
-0.15714276
0.13823172
0.4760502
1.0510173
1.5263546
1.7324048
1.7314163
2.0428572
0.15714288
0.51747179
0.89876723
1.2187554
1.5285844
1.799206
2.0167675
2.3571429
0.47142863
0.78571439
1.1000001
1.4142858
1.7285715
2.0428572
2.3571429
2.6714287
-1.4142858
-1.1
-0.78571427
-0.47142863
-0.15714288
0.15714288
0.47142851
0.78571427
-1.1
-0.86386555
-0.61690414
-0.30484787
0.010712883
0.52299404
0.74643528
1.1
-0.78571427
-0.56011897
-0.38836735
nan
nan
0.95967829
1.0756788
1.4142857
-0.47142863
-0.24622056
-0.11418436
nan
nan
1.4517589
1.5478225
1.7285714
-0.15714288
0.21177875
0.44640133
1.0412889
1.683108
1.716651
1.8783911
2.0428572
0.15714288
0.43618956
0.68003207
1.212358
1.6388874
1.9334524
2.1210406
2.3571429
0.47142851
0.78744805
1.093582
1.52236
1.7956911
2.1366093
2.4153316
2.6714287
0.78571427
1.1
1.4142857
1.7285714
2.0428572
2.3571429
2.6714287
2.9857144
-1.1
-0.78571427
-0.47142851
-0.15714288
0.15714288
0.47142863
0.78571427
1.1
-0.78571427
-0.47142851
-0.15714276
0.15714288
0.47142863
0.78571439
1.1
1.4142858
-0.47142851
-0.15714276
0.15714288
0.47142857
0.78571433
1.1000001
1.4142857
1.7285714
-0.15714288
0.15714288
0.47142857
0.78571427
1.1
1.4142858
1.7285714
2.0428572
0.15714288
0.47142863
0.78571433
1.1
1.4142858
1.7285715
2.0428572
2.3571429
0.47142863
0.78571439
1.1000001
1.4142858
1.7285715
2.0428572
2.3571429
2.6714287
0.78571427
1.1
1.4142857
1.7285714
2.0428572
2.3571429
2.6714287
2.9857144
1.1
1.4142858
1.7285714
2.0428572
2.3571429
2.6714287
2.9857144
3.3000002
SCALARS is_valid float 1
LOOKUP_TABLE default
1
1
1
1
1
1
1
1
1
1
1
1
1
1
1
1
1
1
1
1
1
1
1
1
1
1
1
1
1
1
1
1
1
1
1
1
1
1
1
1
1
1
1
1
1
1
1
1
1
1
1
1
1
1
1
1
1
1
1
1
1
1
1
1
1
1
1
1
1
1
1
1
1
1
1
1
1
1
1
1
1
1
1
1
1
1
1
1
1
1
1
1
1
1
1
1
1
1
1
1
1
1
1
1
1
1
1
1
1
1
1
1
1
1
1
1
1
1
1
1
1
1
1
1
1
1
1
1
1
1
1
1
1
1
1
1
1
1
1
1
1
1
1
1
1
1
1
1
1
1
1
1
1
1
1
1
1
1
1
1
1
1
1
0
0
1
1
1
1
1
1
0
0
1
1
1
1
1
1
1
1
1
1
1
1
1
1
1
1
1
1
1
1
1
1
1
1
1
1
1
1
1
1
1
1
1
1
1
1
1
1
1
1
1
1
1
1
1
1
0
0
1
1
1
1
1
1
1
1
1
1
1
1
1
1
0
0
1
1
1
1
1
1
1
1
1
1
1
1
1
1
1
1
1
1
1
1
1
1
1
1
1
1
1
1
1
1
1
1
1
1
1
1
1
1
0
0
1
1
1
1
1
1
0
0
1
1
1
1
1
1
0
0
1
1
1
1
1
1
1
1
1
1
1
1
1
1
1
1
1
1
1
1
1
1
1
1
1
1
1
1
1
1
1
1
1
1
1
1
1
1
1
1
1
1
1
1
1
1
0
0
1
1
1
1
1
1
0
0
1
1
1
1
1
1
0
0
1
1
1
1
1
1
1
1
1
1
1
1
1
1
1
1
1
1
1
1
1
1
1
1
1
1
1
1
1
1
1
1
1
1
1
1
1
1
1
1
1
1
1
1
1
1
0
0
1
1
1
1
1
1
0
0
1
1
1
1
1
1
1
1
1
1
1
1
1
1
1
1
1
1
1
1
1
1
1
1
1
1
1
1
1
1
1
1
1
1
1
1
1
1
1
1
1
1
1
1
1
1
1
1
1
1
1
1
1
1
1
1
1
1
1
1
1
1
1
1
1
1
1
1
1
1
1
1
1
1
1
1
1
1
1
1
1
1
1
1
1
1
1
1
1
1
1
1
1
1
1
1
1
1
1
SCALARS std_error float 1
LOOKUP_TABLE default
0
0
0
0
0
0
0
0
0
0
0
0
0
0
0
0
0
0
0
0
0
0
0
0
0
0
0
0
0
0
0
0
0
0
0
0
0
0
0
0
0
0
0
0
0
0
0
0
0
0
0
0
0
0
0
0
0
0
0
0
0
0
0
0
0
0
0
0
0
0
0
0
0
0.037884444
0.030623162
0.036278188
0.039318565
0.04367755
0.034343198
0
0
0.037493549
0.051293731
0.0486646
0.057854626
0.060316112
0.042642243
0
0
0.052529618
0.044776775
0.053791948
0.060875643
0.055499788
0.050416622
0
0
0.0384508
0.047056183
0.055368919
0.062820435
0.06139975
0.048133794
0
0
0.046003327
0.048264965
0.047054134
0.053196531
0.0535786
0.043808304
0
0
0.033966839
0.042825919
0.044587966
0.044858254
0.045172442
0.031017527
0
0
0
0
0
0
0
0
0
0
0
0
0
0
0
0
0
0
0.040130906
0.04048641
0.044568863
0.053198274
0.060591571
0.047209613
0
0
0.047661606
0.057682224
0.065415323
0.067416511
0.069407322
0.054542813
0
0
0.051394109
0.057448212
0.075441413
0.087071687
0.077302299
0.062357716
0
0
0.051630117
0.058626339
0
0
0.074884146
0.05695885
0
0
0.049583282
0.057798184
0
0
0.06395705
0.053446822
0
0
0.044513069
0.054630436
0.055836208
0.058814988
0.051407352
0.043282922
0
0
0
0
0
0
0
0
0
0
0
0
0
0
0
0
0
0
0.037194982
0.049851175
0.048013441
0.062323492
0.064291529
0.056286916
0
0
0.054366127
0.056533419
0.069973305
0.068926372
0.075000495
0.056709994
0
0
0.052331474
0.062657274
0
0
0.08277332
0.065378211
0
0
0.06262742
0.071916655
0.079754367
0.090784647
0.0753906
0.0618493
0
0
0.057283968
0.082201585
0
0
0.071946822
0.0625294
0
0
0.046206128
0.059118707
0.063632727
0.047186293
0.052010275
0.044768825
0
0
0
0
0
0
0
0
0
0
0
0
0
0
0
0
0
0
0.047675267
0.048989892
0.051148608
0.060936902
0.057628177
0.051497769
0
0
0.050396703
0.055518024
0
0
0.071139261
0.061082643
0
0
0.055258289
0.066656902
0
0
0.080085464
0.054980308
0
0
0.063230217
0.077733785
0
0
0.078721218
0.060294122
0
0
0.058128644
0.080044188
0.080173992
0.072129846
0.055601571
0.052655358
0
0
0.045707382
0.063421518
0.059528444
0.055906579
0.044266727
0.039809037
0
0
0
0
0
0
0
0
0
0
0
0
0
0
0
0
0
0
0.035043392
0.045162298
0.046036955
0.056360636
0.055759247
0.047950838
0
0
0.053324312
0.059251204
0
0
0.070530631
0.049130023
0
0
0.052393656
0.072062537
0
0
0.06819766
0.053806398
0
0
0.055108029
0.077290252
0
0
0.058861952
0.044872396
0
0
0.057559364
0.071705349
0.070321783
0.062874183
0.053318769
0.050352342
0
0
0.047453064
0.057551503
0.054207806
0.05202359
0.043410514
0.049402703
0
0
0
0
0
0
0
0
0
0
0
0
0
0
0
0
0
0
0.035253208
0.037671205
0.04492484
0.053363819
0.046039462
0.038302075
0
0
0.041307535
0.054831579
0
0
0.059907667
0.049527027
0
0
0.048145976
0.057456076
0
0
0.049816377
0.043181714
0
0
0.053786576
0.057373241
0.06143472
0.045674603
0.038649756
0.039511889
0
0
0.044821437
0.059071075
0.054028492
0.040871318
0.035850726
0.03136107
0
0
0.034197934
0.044539597
0.045027267
0.0366119
0.037496887
0.030866681
0
0
0
0
0
0
0
0
0
0
0
0
0
0
0
0
0
0
0
0
0
0
0
0
0
0
0
0
0
0
0
0
0
0
0
0
0
0
0
0
0
0
0
0
0
0
0
0
0
0
0
0
0
0
0
0
0
0
0
0
0
0
0
0
0
0
0
0
0
0
0
0
0
SCALARS sample_variance float 1
LOOKUP_TABLE default
0
0
0
0
0
0
0
0
0
0
0
0
0
0
0
0
0
0
0
0
0
0
0
0
0
0
0
0
0
0
0
0
0
0
0
0
0
0
0
0
0
0
0
0
0
0
0
0
0
0
0
0
0
0
0
0
0
0
0
0
0
0
0
0
0
0
0
0
0
0
0
0
0
0.36741918
0.24007118
0.33692336
0.39576307
0.48837849
0.30194053
0
0
0.35987619
0.67354798
0.60627025
0.85687238
0.93133652
0.46550035
0
0
0.7063964
0.51326966
0.7407549
0.94869608
0.78853798
0.65070999
0
0
0.37848678
0.56685686
0.7848236
1.0102801
0.9651019
0.5931167
0
0
0.54177433
0.59635377
0.56680739
0.72444689
0.73489064
0.49130687
0
0
0.29535902
0.4695192
0.50895023
0.51513934
0.52238071
0.24629427
0
0
0
0
0
0
0
0
0
0
0
0
0
0
0
0
0
0
0.41228533
0.41962227
0.50851423
0.7244944
0.93986261
0.57055938
0
0
0.58153701
0.85177314
1.0954661
1.1635165
1.2332482
0.76157916
0
0
0.67618674
0.84487611
1.457
1.9408587
1.5297651
0.99545205
0
0
0.68241125
0.87988424
0
0
1.4355546
0.83054352
0
0
0.62937653
0.8552013
0
0
1.047169
0.73128003
0
0
0.50724185
0.76402801
0.79812658
0.88555586
0.67653525
0.47959331
0
0
0
0
0
0
0
0
0
0
0
0
0
0
0
0
0
0
0.35416746
0.63619572
0.59015435
0.99435973
1.0581505
0.81106347
0
0
0.75665301
0.818183
1.2534435
1.2162163
1.4400191
0.82330197
0
0
0.70107728
1.0050391
0
0
1.7539642
1.0942236
0
0
1.0040816
1.3240333
1.6283544
2.1099143
1.4550382
0.97928596
0
0
0.84005189
1.7298177
0
0
1.3251444
1.000941
0
0
0.54656154
0.89472556
1.0365758
0.56999582
0.69249761
0.51308745
0
0
0
0
0
0
0
0
0
0
0
0
0
0
0
0
0
0
0.58187038
0.61440247
0.66974211
0.95060641
0.85017771
0.67891711
0
0
0.65019584
0.7890563
0
0
1.2955635
0.95515889
0
0
0.78169048
1.1374445
0
0
1.6419026
0.77384561
0
0
1.0235034
1.5468906
0
0
1.5864397
0.93065757
0
0
0.86500841
1.6402103
1.6455344
1.3318949
0.79143286
0.70978224
0
0
0.53482616
1.029706
0.90717071
0.80013967
0.501643
0.40569839
0
0
0
0
0
0
0
0
0
0
0
0
0
0
0
0
0
0
0.31437805
0.52214611
0.54256672
0.81318951
0.79592794
0.58861637
0
0
0.72793144
0.89874053
0
0
1.27349
0.61792237
0
0
0.70274431
1.3294103
0
0
1.1906358
0.74115288
0
0
0.77744508
1.5292883
0
0
0.88697076
0.51546413
0
0
0.84814858
1.3162642
1.2659593
1.0120096
0.7277801
0.64905173
0
0
0.57645905
0.8479169
0.75225252
0.6928522
0.482425
0.62480056
0
0
0
0
0
0
0
0
0
0
0
0
0
0
0
0
0
0
0.31815395
0.3632946
0.51666975
0.72901046
0.54262578
0.37556452
0
0
0.43681598
0.76966453
0
0
0.91876572
0.62794918
0
0
0.59341699
0.84510744
0
0
0.63530785
0.47735307
0
0
0.74060696
0.84267229
0.9662016
0.53405935
0.38241374
0.39966452
0
0
0.51429409
0.89328432
0.74728394
0.42763892
0.32903028
0.25178024
0
0
0.29939166
0.50784653
0.51902843
0.34315038
0.35994026
0.2439045
0
0
0
0
0
0
0
0
0
0
0
0
0
0
0
0
0
0
0
0
0
0
0
0
0
0
0
0
0
0
0
0
0
0
0
0
0
0
0
0
0
0
0
0
0
0
0
0
0
0
0
0
0
0
0
0
0
0
0
0
0
0
0
0
0
0
0
0
0
0
0
0
0
SCALARS mean_steps float 1
LOOKUP_TABLE default
1
1
1
1
1
1
1
1
1
1
1
1
1
1
1
1
1
1
1
1
1
1
1
1
1
1
1
1
1
1
1
1
1
1
1
1
1
1
1
1
1
1
1
1
1
1
1
1
1
1
1
1
1
1
1
1
1
1
1
1
1
1
1
1
1
1
1
1
1
1
1
1
1
36.90625
42.691406
66.777344
56.847656
56.941406
41.445312
1
1
48.683594
61.902344
84.886719
79.96875
86.164062
50.46875
1
1
67.839844
89.832031
131.80078
125.07031
84.558594
59.402344
1
1
80.050781
118.39453
152.00391
187.92969
118.14062
76.0625
1
1
69.023438
105.82812
158.39453
146.63281
106.10156
57.230469
1
1
52.832031
77.347656
86.941406
104.28125
69.355469
36.925781
1
1
1
1
1
1
1
1
1
1
1
1
1
1
1
1
1
1
58.382812
68.503906
86.136719
134.67969
103.26953
63.257812
1
1
85.46875
147.35938
158.64453
176.13672
130.98047
82.511719
1
1
112.01953
155.39062
266.82812
253.15625
169.34375
82.980469
1
1
106.89453
182.99609
0
0
194.61328
97.535156
1
1
83.179688
178.98047
0
0
227.43359
103.45312
1
1
62.367188
175.66016
286.33594
273.15625
147.36719
60.363281
1
1
1
1
1
1
1
1
1
1
1
1
1
1
1
1
1
1
72.160156
141.80859
206.22266
208.69141
117.98438
80.382812
1
1
128.55078
207.82812
316.11719
372.72656
213.41797
96.308594
1
1
121.54688
236.8125
0
0
242.47266
128.67578
1
1
117.18359
258.49609
416.24609
416.26172
247.78516
105.21094
1
1
127.80078
250.02734
0
0
225.93359
140.77734
1
1
70.003906
196.52734
389.28516
333.51172
183.28125
94.164062
1
1
1
1
1
1
1
1
1
1
1
1
1
1
1
1
1
1
85.882812
165.42969
250.3125
229.63281
155.33984
73.613281
1
1
152.08203
266.40625
0
0
265.61719
143.94922
1
1
126.01562
280.08203
0
0
321.01562
127.21875
1
1
157.87891
288.98828
0
0
258.75391
132.77344
1
1
105.77734
195.58594
310.82422
312.32422
189.85547
111.20703
1
1
86.996094
161.99609
158.43359
177.87109
141.47266
52.308594
1
1
1
1
1
1
1
1
1
1
1
1
1
1
1
1
1
1
51.988281
140.13281
215.51953
224.80078
148.25781
85.910156
1
1
110.52344
275.54297
0
0
241.98828
88.09375
1
1
120.14453
306.66016
0
0
281.80859
133.58984
1
1
95.230469
254.39062
0
0
232.23438
112.77344
1
1
94.3125
153.66406
231.59766
204.45703
154.49609
94.890625
1
1
55.578125
102.34766
120.87109
129.61328
110.85938
71.574219
1
1
1
1
1
1
1
1
1
1
1
1
1
1
1
1
1
1
52.628906
122.88281
221.14062
242.69531
167.03125
58.851562
1
1
77.5625
228.03125
0
0
218.3125
111.64844
1
1
80.433594
194.5625
0
0
232.51953
79.191406
1
1
93.257812
168.32422
319.47656
319.49609
165.13281
82.464844
1
1
78.105469
114.72656
126.99609
133.875
88.027344
59.074219
1
1
35.804688
60.523438
67.984375
65.519531
60.449219
53.4375
1
1
1
1
1
1
1
1
1
1
1
1
1
1
1
1
1
1
1
1
1
1
1
1
1
1
1
1
1
1
1
1
1
1
1
1
1
1
1
1
1
1
1
1
1
1
1
1
1
1
1
1
1
1
1
1
1
1
1
1
1
1
1
1
1
1
1
1
1
1
1
1
1
SCALARS samples_used int 1
LOOKUP_TABLE default
256
256
256
256
256
256
256
256
256
256
256
256
256
256
256
256
256
256
256
256
256
256
256
256
256
256
256
256
256
256
256
256
256
256
256
256
256
256
256
256
256
256
256
256
256
256
256
256
256
256
256
256
256
256
256
256
256
256
256
256
256
256
256
256
256
256
256
256
256
256
256
256
256
256
256
256
256
256
256
256
256
256
256
256
256
256
256
256
256
256
256
256
256
256
256
256
256
256
256
256
256
256
256
256
256
256
256
256
256
256
256
256
256
256
256
256
256
256
256
256
256
256
256
256
256
256
256
256
256
256
256
256
256
256
256
256
256
256
256
256
256
256
256
256
256
256
256
256
256
256
256
256
256
256
256
256
256
256
256
256
256
256
256
0
0
256
256
256
256
256
256
0
0
256
256
256
256
256
256
256
256
256
256
256
256
256
256
256
256
256
256
256
256
256
256
256
256
256
256
256
256
256
256
256
256
256
256
256
256
256
256
256
256
256
256
256
256
256
256
0
0
256
256
256
256
256
256
256
256
256
256
256
256
256
256
0
0
256
256
256
256
256
256
256
256
256
256
256
256
256
256
256
256
256
256
256
256
256
256
256
256
256
256
256
256
256
256
256
256
256
256
256
256
256
256
0
0
256
256
256
256
256
256
0
0
256
256
256
256
256
256
0
0
256
256
256
256
256
256
256
256
256
256
256
256
256
256
256
256
256
256
256
256
256
256
256
256
256
256
256
256
256
256
256
256
256
256
256
256
256
256
256
256
256
256
256
256
256
256
0
0
256
256
256
256
256
256
0
0
256
256
256
256
256
256
0
0
256
256
256
256
256
256
256
256
256
256
256
256
256
256
256
256
256
256
256
256
256
256
256
256
256
256
256
256
256
256
256
256
256
256
256
256
256
256
256
256
256
256
256
256
256
256
0
0
256
256
256
256
256
256
0
0
256
256
256
256
256
256
256
256
256
256
256
256
256
256
256
256
256
256
256
256
256
256
256
256
256
256
256
256
256
256
256
256
256
256
256
256
256
256
256
256
256
256
256
256
256
256
256
256
256
256
256
256
256
256
256
256
256
256
256
256
256
256
256
256
256
256
256
256
256
256
256
256
256
256
256
256
256
256
256
256
256
256
256
256
256
256
256
256
256
256
256
256
256
256
256
256
256
256
256
SCALARS exact float 1
LOOKUP_TABLE default
-3.3000002
-2.9857144
-2.6714287
-2.3571429
-2.0428572
-1.7285714
-1.4142858
-1.1
-2.9857144
-2.6714287
-2.3571429
-2.0428572
-1.7285714
-1.4142857
-1.1
-0.78571427
-2.6714287
-2.3571429
-2.0428572
-1.7285714
-1.4142857
-1.0999999
-0.78571433
-0.47142857
-2.3571429
-2.0428572
-1.7285714
-1.4142858
-1.1
-0.78571427
-0.47142863
-0.15714288
-2.0428572
-1.7285714
-1.4142857
-1.1
-0.78571427
-0.47142851
-0.15714288
0.15714288
-1.7285714
-1.4142857
-1.0999999
-0.78571427
-0.47142851
-0.15714276
0.15714288
0.47142863
-1.4142858
-1.1
-0.78571433
-0.47142863
-0.15714288
0.15714288
0.47142851
0.78571427
-1.1
-0.78571427
-0.47142857
-0.15714288
0.15714288
0.47142863
0.78571427
1.1
-2.9857144
-2.6714287
-2.3571429
-2.0428572
-1.7285714
-1.4142857
-1.1
-0.78571427
-2.6714287
-2.3571429
-2.0428572
-1.7285714
-1.4142857
-1.0999999
-0.78571427
-0.47142851
-2.3571429
-2.0428572
-1.7285714
-1.4142857
-1.0999999
-0.78571421
-0.47142857
-0.15714282
-2.0428572
-1.7285714
-1.4142857
-1.1
-0.78571427
-0.47142851
-0.15714288
0.15714288
-1.7285714
-1.4142857
-1.0999999
-0.78571427
-0.47142851
-0.15714276
0.15714288
0.47142863
-1.4142857
-1.0999999
-0.78571421
-0.47142851
-0.15714276
0.157143
0.47142863
0.78571439
-1.1
-0.78571427
-0.47142857
-0.15714288
0.15714288
0.47142863
0.78571427
1.1
-0.78571427
-0.47142851
-0.15714282
0.15714288
0.47142863
0.78571439
1.1
1.4142858
-2.6714287
-2.3571429
-2.0428572
-1.7285714
-1.4142857
-1.0999999
-0.78571433
-0.47142857
-2.3571429
-2.0428572
-1.7285714
-1.4142857
-1.0999999
-0.78571421
-0.47142857
-0.15714282
-2.0428572
-1.7285714
-1.4142857
-1.1
-0.78571427
-0.47142851
-0.15714288
0.15714288
-1.7285714
-1.4142857
-1.1
-0.78571433
-0.47142857
-0.15714282
0.15714282
0.47142857
-1.4142857
-1.0999999
-0.78571427
0
0
0.15714294
0.47142857
0.78571433
-1.0999999
-0.78571421
-0.47142851
0
0
0.47142869
0.78571433
1.1000001
-0.78571433
-0.47142857
-0.15714288
0.15714282
0.47142857
0.78571433
1.0999999
1.4142857
-0.47142857
-0.15714282
0.15714288
0.47142857
0.78571433
1.1000001
1.4142857
1.7285714
-2.3571429
-2.0428572
-1.7285714
-1.4142858
-1.1
-0.78571427
-0.47142863
-0.15714288
-2.0428572
-1.7285714
-1.4142857
-1.1
-0.78571427
-0.47142851
-0.15714288
0.15714288
-1.7285714
-1.4142857
-1.1
-0.78571433
-0.47142857
-0.15714282
0.15714282
0.47142857
-1.4142858
-1.1
-0.78571433
0
0
0.15714288
0.47142851
0.78571427
-1.1
-0.78571427
-0.47142857
-0.15714288
0.15714288
0.47142863
0.78571427
1.1
-0.78571427
-0.47142851
-0.15714282
0
0
0.78571439
1.1
1.4142858
-0.47142863
-0.15714288
0.15714282
0.47142851
0.78571427
1.1
1.4142857
1.7285714
-0.15714288
0.15714288
0.47142857
0.78571427
1.1
1.4142858
1.7285714
2.0428572
-2.0428572
-1.7285714
-1.4142857
-1.1
-0.78571427
-0.47142851
-0.15714288
0.15714288
-1.7285714
-1.4142857
-1.0999999
-0.78571427
-0.47142851
-0.15714276
0.15714288
0.47142863
-1.4142857
-1.0999999
-0.78571427
0
0
0.15714294
0.47142857
0.78571433
-1.1
-0.78571427
-0.47142857
0
0
0.47142863
0.78571427
1.1
-0.78571427
-0.47142851
-0.15714282
0
0
0.78571439
1.1
1.4142858
-0.47142851
-0.15714276
0.15714294
0.47142863
0.78571439
1.1000001
1.4142858
1.7285715
-0.15714288
0.15714288
0.47142857
0.78571427
1.1
1.4142858
1.7285714
2.0428572
0.15714288
0.47142863
0.78571433
1.1
1.4142858
1.7285715
2.0428572
2.3571429
-1.7285714
-1.4142857
-1.0999999
-0.78571427
-0.47142851
-0.15714276
0.15714288
0.47142863
-1.4142857
-1.0999999
-0.78571415
-0.47142851
-0.15714276
0.157143
0.47142863
0.78571439
-1.0999999
-0.78571415
-0.47142851
0
0
0.47142869
0.78571433
1.1000001
-0.78571427
-0.47142851
-0.15714282
0
0
0.78571439
1.1
1.4142858
-0.47142851
-0.15714276
0.15714294
0
0
1.1000001
1.4142858
1.7285715
-0.15714276
0.157143
0.47142869
0.78571439
1.1000001
1.4142859
1.7285715
2.0428572
0.15714288
0.47142863
0.78571433
1.1
1.4142858
1.7285715
2.0428572
2.3571429
0.47142863
0.78571439
1.1000001
1.4142858
1.7285715
2.0428572
2.3571429
2.6714287
-1.4142858
-1.1
-0.78571427
-0.47142863
-0.15714288
0.15714288
0.47142851
0.78571427
-1.1
-0.78571427
-0.47142851
-0.15714288
0.15714288
0.47142863
0.78571427
1.1
-0.78571427
-0.47142851
-0.15714288
0
0
0.78571433
1.0999999
1.4142857
-0.47142863
-0.15714288
0.15714282
0
0
1.1
1.4142857
1.7285714
-0.15714288
0.15714288
0.47142857
0.78571427
1.1
1.4142858
1.7285714
2.0428572
0.15714288
0.47142863
0.78571433
1.1
1.4142858
1.7285715
2.0428572
2.3571429
0.47142851
0.78571427
1.0999999
1.4142857
1.7285714
2.0428572
2.3571429
2.6714287
0.78571427
1.1
1.4142857
1.7285714
2.0428572
2.3571429
2.6714287
2.9857144
-1.1
-0.78571427
-0.47142851
-0.15714288
0.15714288
0.47142863
0.78571427
1.1
-0.78571427
-0.47142851
-0.15714276
0.15714288
0.47142863
0.78571439
1.1
1.4142858
-0.47142851
-0.15714276
0.15714288
0.47142857
0.78571433
1.1000001
1.4142857
1.7285714
-0.15714288
0.15714288
0.47142857
0.78571427
1.1
1.4142858
1.7285714
2.0428572
0.15714288
0.47142863
0.78571433
1.1
1.4142858
1.7285715
2.0428572
2.3571429
0.47142863
0.78571439
1.1000001
1.4142858
1.7285715
2.0428572
2.3571429
2.6714287
0.78571427
1.1
1.4142857
1.7285714
2.0428572
2.3571429
2.6714287
2.9857144
1.1
1.4142858
1.7285714
2.0428572
2.3571429
2.6714287
2.9857144
3.3000002
SCALARS abs_error float 1
LOOKUP_TABLE default
0
0
0
0
0
0
0
0
0
0
0
0
0
0
0
0
0
0
0
0
0
0
0
0
0
0
0
0
0
0
0
0
0
0
0
0
0
0
0
0
0
0
0
0
0
0
0
0
0
0
0
0
0
0
0
0
0
0
0
0
0
0
0
0
0
0
0
0
0
0
0
0
0
0.0025191307
0.10668397
0.087235332
0.098379731
0.05330205
0.0029881597
0
0
0.016978264
0.14187729
0.13107014
0.050802112
0.031017184
0.010757893
0
0
0.0024623871
0.19238663
0.21453917
0.12002391
0.086227655
0.063280731
0
0
0.10426855
0.21010971
0.2242099
0.20747304
0.035429209
0.043383814
0
0
0.021845818
0.217884
0.26423275
0.012074366
0.041225187
0.02829206
0
0
0.069440603
0.12371057
0.056115791
0.0057379007
0.01856029
0.037782848
0
0
0
0
0
0
0
0
0
0
0
0
0
0
0
0
0
0
0.036382914
0.095807672
0.14974964
0.116853
0.066557586
0.063205957
0
0
0.11049819
0.14726484
0.16328788
0.21542215
0.032900393
0.088237807
0
0
0.078578711
0.38186741
0.35266072
0.20376861
0.073641092
0.034975991
0
0
0.083351851
0.40153277
0
0
0.0038337857
0.073532879
0
0
0.08563
0.2399115
0
0
0.29668218
0.12485844
0
0
0.048415989
0.11237407
0.12076184
0.10433298
0.076184154
0.049494386
0
0
0
0
0
0
0
0
0
0
0
0
0
0
0
0
0
0
0.11111295
0.18632877
0.29216421
0.12721533
0.043769419
0.028030381
0
0
0.13789999
0.3816669
0.55384237
0.56897169
0.023470953
0.05431968
0
0
0.17872179
0.50749904
0
0
0.040926188
0.12684804
0
0
0.21975136
0.51594967
0.92972624
0.34767967
0.38985193
0.1192736
0
0
0.159805
0.09555006
0
0
0.26083219
0.01776576
0
0
0.064867154
0.043790445
0.3354575
0.6424582
0.25660944
0.1043005
0
0
0
0
0
0
0
0
0
0
0
0
0
0
0
0
0
0
0.0099811554
0.17998147
0.28357506
0.21961099
0.039221257
0.0174281
0
0
0.19197929
0.57399535
0
0
0.16783422
0.035511076
0
0
0.2172817
0.4818514
0
0
0.43056566
0.21864676
0
0
0.02675581
0.32310989
0
0
0.43337131
0.09323585
0
0
0.065879807
0.022578388
0.53952622
0.56435335
0.39721978
0.11016858
0
0
0.011629835
0.12367338
0.14453584
0.18969059
0.19312871
0.061172247
0
0
0
0
0
0
0
0
0
0
0
0
0
0
0
0
0
0
0.10334742
0.15136534
0.27017134
0.11972877
0.046631247
0.010165423
0
0
0.028141618
0.4786815
0
0
0.11318749
0.068984091
0
0
0.17360955
0.48253071
0
0
0.41143787
0.22261417
0
0
0.071612775
0.14741045
0
0
0.43443954
0.18693161
0
0
0.018911272
0.0046215057
0.2653029
0.42635441
0.31811893
0.0028448105
0
0
0.046043158
0.1130529
0.11875534
0.11429858
0.070634484
0.026089668
0
0
0
0
0
0
0
0
0
0
0
0
0
0
0
0
0
0
0.078151286
0.14547563
0.14770499
0.14643
0.051565409
0.039278984
0
0
0.08869046
0.23122448
0
0
0.17396396
0.024321079
0
0
0.089077681
0.2713272
0
0
0.35175884
0.13353682
0
0
0.054635867
0.025027245
0.25557458
0.58310795
0.30236518
0.14981973
0
0
0.035239071
0.10568225
0.11235797
0.22460163
0.20488083
0.078183413
0
0
0.0017337799
0.0064178705
0.10807431
0.067119718
0.093752146
0.058188677
0
0
0
0
0
0
0
0
0
0
0
0
0
0
0
0
0
0
0
0
0
0
0
0
0
0
0
0
0
0
0
0
0
0
0
0
0
0
0
0
0
0
0
0
0
0
0
0
0
0
0
0
0
0
0
0
0
0
0
0
0
0
0
0
0
0
0
0
0
0
0
0
0
