# vtk DataFile Version 3.0
Zombie Bunny baseline structured grid
ASCII
DATASET STRUCTURED_POINTS
DIMENSIONS 16 16 16
ORIGIN -1.1 -1.1 -1.1
SPACING 0.14666666666666667 0.14666666666666667 0.14666666666666667
POINT_DATA 4096
SCALARS solution float 1
LOOKUP_TABLE default
-3.3000001907348633
-3.1533334255218506
-3.006666660308838
-2.8600001335144043
-2.7133333683013916
-2.566666841506958
-2.4200000762939453
-2.2733335494995117
-2.12666654586792
-1.9800000190734863
-1.8333334922790527
-1.6866668462753296
-1.540000081062317
-1.3933333158493042
-1.2466667890548706
-1.100000023841858
-3.1533331871032715
-3.006666660308838
-2.859999895095825
-2.7133333683013916
-2.566666603088379
-2.4200000762939453
-2.2733333110809326
-2.12666654586792
-1.9799997806549072
-1.8333332538604736
-1.68666672706604
-1.5399999618530273
-1.3933334350585938
-1.246666669845581
-1.100000023841858
-0.9533332586288452
-3.006666660308838
-2.8600001335144043
-2.7133333683013916
-2.566666603088379
-2.4200000762939453
-2.2733333110809326
-2.126666784286499
-1.9800000190734863
-1.8333334922790527
-1.6866668462753296
-1.5399999618530273
-1.3933333158493042
-1.246666669845581
-1.100000262260437
-0.9533334374427795
-0.8066667318344116
-2.8600001335144043
-2.7133333683013916
-2.566666603088379
-2.4200000762939453
-2.2733330726623535
-2.12666654586792
-1.9800000190734863
-1.8333332538604736
-1.68666672706604
-1.5399999618530273
-1.3933334350585938
-1.246666669845581
-1.1000001430511475
-0.95333331823349
-0.8066667914390564
-0.6599999666213989
-2.7133333683013916
-2.566666603088379
-2.4200000762939453
-2.2733330726623535
-2.12666654586792
-1.9800000190734863
-1.8333332538604736
-1.6866666078567505
-1.5399998426437378
-1.3933333158493042
-1.246666669845581
-1.1000001430511475
-0.9533335566520691
-0.8066667318344116
-0.6600000858306885
-0.5133333206176758
-2.566666603088379
-2.4200000762939453
-2.2733333110809326
-2.12666654586792
-1.9800000190734863
-1.8333334922790527
-1.6866663694381714
-1.540000081062317
-1.3933334350585938
-1.246666669845581
-1.1000001430511475
-0.9533334970474243
-0.8066669702529907
-0.6600001454353333
-0.5133334994316101
-0.36666667461395264
-2.4200000762939453
-2.2733333110809326
-2.126666784286499
-1.9800000190734863
-1.8333334922790527
-1.68666672706604
-1.540000081062317
-1.3933334350585938
-1.2466670274734497
-1.0999999046325684
-0.9533334374427795
-0.8066667914390564
-0.6600000262260437
-0.5133334398269653
-0.3666667938232422
-0.2200000286102295
-2.2733335494995117
-2.12666654586792
-1.9800000190734863
-1.8333333730697632
-1.68666672706604
-1.540000081062317
-1.3933334350585938
-1.2466667890548706
-1.100000023841858
-0.9533333778381348
-0.8066667318344116
-0.6600001454353333
-0.5133334994316101
-0.3666667342185974
-0.22000014781951904
-0.07333338260650635
-2.12666654586792
-1.9800000190734863
-1.8333333730697632
-1.68666672706604
-1.540000081062317
-1.3933334350585938
-1.2466669082641602
-1.100000023841858
-0.9533332586288452
-0.8066665530204773
-0.6599999666213989
-0.5133335590362549
-0.36666667461395264
-0.21999996900558472
-0.07333362102508545
0.07333338260650635
-1.9800000190734863
-1.8333332538604736
-1.6866668462753296
-1.5399999618530273
-1.3933334350585938
-1.246666669845581
-1.0999999046325684
-0.9533333778381348
-0.8066667914390564
-0.6599999666213989
-0.5133335590362549
-0.36666667461395264
-0.22000014781951904
-0.07333332300186157
0.0733332633972168
0.2200000286102295
-1.8333334922790527
-1.6866668462753296
-1.5399999618530273
-1.3933334350585938
-1.246666669845581
-1.1000001430511475
-0.9533334374427795
-0.8066667318344116
-0.6599999666213989
-0.5133335590362549
-0.36666691303253174
-0.2200002670288086
-0.07333332300186157
0.07333290576934814
0.21999996900558472
0.3666667342185974
-1.6866668462753296
-1.5399999618530273
-1.3933333158493042
-1.2466667890548706
-1.1000001430511475
-0.9533334970474243
-0.8066667914390564
-0.6600001454353333
-0.5133335590362549
-0.36666667461395264
-0.2200002670288086
-0.07333362102508545
0.07333332300186157
0.2199997901916504
0.36666643619537354
0.5133333206176758
-1.540000081062317
-1.3933331966400146
-1.2466667890548706
-1.0999999046325684
-0.9533334970474243
-0.8066669702529907
-0.6600000262260437
-0.5133334994316101
-0.36666667461395264
-0.22000014781951904
-0.07333362102508545
0.07333308458328247
0.21999990940093994
0.36666685342788696
0.5133334398269653
0.6600000262260437
-1.3933333158493042
-1.2466665506362915
-1.100000023841858
-0.9533333778381348
-0.8066669702529907
-0.660000205039978
-0.5133334398269653
-0.3666667342185974
-0.21999996900558472
-0.07333338260650635
0.07333314418792725
0.2199997901916504
0.36666661500930786
0.5133334398269653
0.6600001454353333
0.8066666722297668
-1.2466667890548706
-1.0999999046325684
-0.9533331394195557
-0.8066666126251221
-0.6600000858306885
-0.5133335590362549
-0.3666667938232422
-0.22000014781951904
-0.07333362102508545
0.0733332633972168
0.21999996900558472
0.36666643619537354
0.5133334398269653
0.6599998474121094
0.8066664934158325
0.95333331823349
-1.100000023841858
-0.95333331823349
-0.8066666722297668
-0.6600000262260437
-0.5133333206176758
-0.3666667342185974
-0.2200000286102295
-0.07333338260650635
0.07333338260650635
0.2200000286102295
0.3666667342185974
0.5133333206176758
0.6600000262260437
0.8066666722297668
0.95333331823349
1.100000023841858
-3.1533331871032715
-3.006666660308838
-2.859999895095825
-2.7133333683013916
-2.566666603088379
-2.4200000762939453
-2.2733333110809326
-2.12666654586792
-1.9799998998641968
-1.8333332538604736
-1.68666672706604
-1.5399999618530273
-1.3933331966400146
-1.246666431427002
-1.0999999046325684
-0.9533332586288452
-3.006666660308838
-2.8582065105438232
-2.7199790477752686
-2.5673277378082275
-2.4438517093658447
-2.2866034507751465
-2.0383594036102295
-2.0186679363250732
-1.8326972723007202
-1.7103079557418823
-1.5513559579849243
-1.4256494045257568
-1.2389599084854126
-1.1248514652252197
-0.9560719728469849
-0.8066664934158325
-2.8600001335144043
-2.7584877014160156
-2.574957847595215
-2.471787452697754
-2.289706230163574
-2.1227269172668457
-2.018867015838623
-1.7973697185516357
-1.7082935571670532
-1.5375096797943115
-1.3793020248413086
-1.2590782642364502
-1.0933724641799927
-0.9617702960968018
-0.8151867389678955
-0.660000205039978
-2.7133333683013916
-2.5672428607940674
-2.421224355697632
-2.2374401092529297
-2.155759572982788
-1.9182981252670288
-1.9212713241577148
-1.6293848752975464
-1.4806245565414429
-1.3837218284606934
-1.1946650743484497
-1.130281925201416
-0.9380971789360046
-0.7617763876914978
-0.6768659949302673
-0.5133334398269653
-2.566666603088379
-2.42002010345459
-2.2728099822998047
-2.1255593299865723
-1.937741994857788
-1.8522050380706787
-1.6813840866088867
-1.5880491733551025
-1.401940107345581
-1.2809849977493286
-1.0707722902297974
-0.9336937069892883
-0.7448215484619141
-0.6435995697975159
-0.5303431153297424
-0.36666643619537354
-2.4200000762939453
-2.2374913692474365
-2.1448419094085693
-1.9838532209396362
-1.8358629941940308
-1.6603072881698608
-1.5318329334259033
-1.3816962242126465
-1.2661926746368408
-1.0890758037567139
-0.9292253851890564
-0.819966197013855
-0.620212972164154
-0.5238154530525208
-0.40689709782600403
-0.21999990940093994
-2.2733335494995117
-2.1395137310028076
-1.98249089717865
-1.8701016902923584
-1.698297142982483
-1.5194085836410522
-1.371708631515503
-1.264212965965271
-1.1074777841567993
-0.9627937078475952
-0.89014732837677
-0.6722196340560913
-0.48021557927131653
-0.40143680572509766
-0.23480680584907532
-0.0733332633972168
-2.12666654586792
-2.0028438568115234
-1.81233549118042
-1.6877961158752441
-1.5296831130981445
-1.4500335454940796
-1.2387570142745972
-1.105684757232666
-0.9152473211288452
-0.8098427653312683
-0.6703269481658936
-0.545089840888977
-0.31018009781837463
-0.23524096608161926
-0.0431390255689621
0.07333362102508545
-1.9799998998641968
-1.8286575078964233
-1.7083717584609985
-1.5511598587036133
-1.330046534538269
-1.2068575620651245
-1.0437722206115723
-1.0087342262268066
-0.8012746572494507
-0.6579251289367676
-0.49077335000038147
-0.38549062609672546
-0.2945865988731384
-0.10521168261766434
0.12188718467950821
0.22000014781951904
-1.8333332538604736
-1.7091588973999023
-1.485814094543457
-1.3553270101547241
-1.2295283079147339
-1.155039668083191
-1.0059353113174438
-0.7363113164901733
-0.6720042824745178
-0.5515794157981873
-0.39033055305480957
-0.23847171664237976
-0.09476764500141144
0.08228589594364166
0.21978674829006195
0.3666667938232422
-1.6866668462753296
-1.550535798072815
-1.424047589302063
-1.2666349411010742
-1.114964485168457
-0.9478772282600403
-0.8052849173545837
-0.6883968710899353
-0.4580294191837311
-0.3853151202201843
-0.2152431756258011
-0.05179337412118912
0.05717597156763077
0.13902068138122559
0.3560890555381775
0.5133335590362549
-1.540000081062317
-1.3782395124435425
-1.2594614028930664
-1.1247084140777588
-0.991676390171051
-0.8359282612800598
-0.6188453435897827
-0.5309772491455078
-0.381553053855896
-0.22463741898536682
-0.09317754209041595
0.08946949243545532
0.21285009384155273
0.37699583172798157
0.5062665343284607
0.6600000858306885
-1.3933334350585938
-1.2192989587783813
-1.1245089769363403
-0.9388320446014404
-0.82722008228302
-0.6780218482017517
-0.5013105869293213
-0.3275851905345917
-0.23605673015117645
-0.024226617068052292
0.1076204925775528
0.19021202623844147
0.38956817984580994
0.5019394159317017
0.6635321378707886
0.8066668510437012
-1.2466667890548706
-1.0729379653930664
-0.9364728331565857
-0.8092820048332214
-0.6512566208839417
-0.5138891339302063
-0.34915727376937866
-0.20789377391338348
-0.06424315273761749
0.013394957408308983
0.20745345950126648
0.37140166759490967
0.5508717894554138
0.6335644125938416
0.8011223673820496
0.9533333778381348
-1.1000001430511475
-0.9366680383682251
-0.8063288927078247
-0.6389517188072205
-0.5336205959320068
-0.3584456741809845
-0.22004076838493347
-0.09808140993118286
0.04382516071200371
0.22827361524105072
0.34439247846603394
0.5151740908622742
0.6442791223526001
0.819034993648529
0.968574047088623
1.1000001430511475
-0.95333331823349
-0.8066664934158325
-0.6599998474121094
-0.5133334398269653
-0.36666643619537354
-0.21999996900558472
-0.0733332633972168
0.07333362102508545
0.22000014781951904
0.3666667938232422
0.5133335590362549
0.6600000858306885
0.8066666126251221
0.9533331394195557
1.0999999046325684
1.2466667890548706
-3.006666660308838
-2.8600001335144043
-2.7133333683013916
-2.566666603088379
-2.4200000762939453
-2.2733333110809326
-2.126666784286499
-1.9800000190734863
-1.8333333730697632
-1.6866668462753296
-1.5399999618530273
-1.3933333158493042
-1.2466667890548706
-1.1000001430511475
-0.9533331394195557
-0.8066667318344116
-2.8600001335144043
-2.6922857761383057
-2.6135833263397217
-2.465693712234497
-2.3065168857574463
-2.1425070762634277
-2.0237953662872314
-1.8564602136611938
-1.764981746673584
-1.5509929656982422
-1.422900915145874
-1.2732921838760376
-1.1110942363739014
-0.9377744793891907
-0.7983853816986084
-0.6599998474121094
-2.7133333683013916
-2.5046749114990234
-2.452420949935913
-2.2592577934265137
-2.10863995552063
-1.9836937189102173
-1.815991997718811
-1.6546663045883179
-1.573114037513733
-1.3533140420913696
-1.2688963413238525
-1.150952696800232
-0.9161315560340881
-0.756440281867981
-0.6479910016059875
-0.5133334398269653
-2.566666603088379
-2.4101977348327637
-2.2757670879364014
-2.1013245582580566
-1.9684962034225464
-1.830926775932312
-1.7019411325454712
-1.5658129453659058
-1.4145030975341797
-1.2751766443252563
-1.015356421470642
-0.9325465559959412
-0.79906165599823
-0.6966480016708374
-0.4781155586242676
-0.36666691303253174
-2.4200000762939453
-2.302018404006958
-2.1889734268188477
-2.1067984104156494
-1.771159291267395
-1.690765380859375
-1.5403810739517212
-1.372341275215149
-1.1980843544006348
-1.0795236825942993
-0.9059520959854126
-0.7862070202827454
-0.6877617835998535
-0.5163549184799194
-0.3351461887359619
-0.2199997901916504
-2.2733333110809326
-2.1359803676605225
-1.9417121410369873
-1.872243046760559
-1.6027675867080688
-1.598978877067566
-1.3658839464187622
-1.1982115507125854
-1.0681109428405762
-0.8690584897994995
-0.7866765260696411
-0.6125320196151733
-0.4474780261516571
-0.3601149022579193
-0.20821057260036469
-0.07333290576934814
-2.12666654586792
-1.9735376834869385
-1.7882537841796875
-1.6647567749023438
-1.4865376949310303
-1.352848768234253
-1.2360330820083618
-1.021924614906311
-0.9446457624435425
-0.7328541278839111
-0.6890867352485657
-0.5659269690513611
-0.3595624268054962
-0.26482927799224854
-0.030023243278265
0.07333338260650635
-1.9800000190734863
-1.8047947883605957
-1.6461758613586426
-1.5517683029174805
-1.4003387689590454
-1.276630163192749
-1.069035530090332
-0.9873821139335632
-0.7671212553977966
-0.6367514133453369
-0.49438637495040894
-0.4101599454879761
-0.2012004554271698
-0.03703949972987175
0.05863551050424576
0.21999996900558472
-1.8333334922790527
-1.705843448638916
-1.549390435218811
-1.4883077144622803
-1.3023982048034668
-1.1730592250823975
-0.942134439945221
-0.80618816614151
-0.6886656880378723
-0.4949176013469696
-0.3454948961734772
-0.2728749215602875
-0.08218831568956375
-0.004685820080339909
0.21979719400405884
0.3666667342185974
-1.6866668462753296
-1.5484437942504883
-1.4129424095153809
-1.3078889846801758
-1.0124669075012207
-0.9976781606674194
-0.7986487150192261
-0.6384842991828918
-0.5206041932106018
-0.3797304034233093
-0.24479933083057404
-0.06745240092277527
0.0257699154317379
0.2360730767250061
0.4273682236671448
0.5133334398269653
-1.5399999618530273
-1.3304839134216309
-1.2901296615600586
-1.0564781427383423
-0.8771907091140747
-0.8211894631385803
-0.6453508734703064
-0.5011460185050964
-0.3989771008491516
-0.24786344170570374
-0.09300052374601364
0.12630005180835724
0.20734769105911255
0.3990674614906311
0.5760733485221863
0.660000205039978
-1.3933333158493042
-1.1986989974975586
-1.0727962255477905
-0.8924063444137573
-0.8439416885375977
-0.5844753384590149
-0.5447800755500793
-0.3580518960952759
-0.1941983997821808
-0.12426333129405975
0.05538558214902878
0.20646657049655914
0.3823928236961365
0.5081935524940491
0.6830750107765198
0.8066667318344116
-1.246666669845581
-1.1538519859313965
-0.9501322507858276
-0.7767232060432434
-0.6124638319015503
-0.5053857564926147
-0.401342511177063
-0.1993805468082428
-0.11820761114358902
0.07263056933879852
0.21167026460170746
0.3820766806602478
0.5211281776428223
0.6142043471336365
0.7688884139060974
0.9533333778381348
-1.100000262260437
-0.9613465070724487
-0.7819879055023193
-0.7228816747665405
-0.5229089856147766
-0.3317950963973999
-0.17516584694385529
-0.08281001448631287
0.10324086993932724
0.21414384245872498
0.3867553174495697
0.5724784731864929
0.6209847331047058
0.7425832152366638
0.9123548865318298
1.100000262260437
-0.9533333778381348
-0.7909781336784363
-0.6114519834518433
-0.5529860258102417
-0.4152209460735321
-0.2399185597896576
-0.06675812602043152
0.022920891642570496
0.2184426486492157
0.32003599405288696
0.533039927482605
0.641377866268158
0.8030672669410706
0.9748502969741821
1.0860110521316528
1.2466667890548706
-0.8066666722297668
-0.6600001454353333
-0.5133334398269653
-0.36666661500930786
-0.2199997901916504
-0.07333314418792725
0.07333338260650635
0.21999996900558472
0.3666667342185974
0.5133334398269653
0.660000205039978
0.8066669702529907
0.9533333778381348
1.100000023841858
1.2466665506362915
1.3933333158493042
-2.8600001335144043
-2.7133333683013916
-2.566666603088379
-2.4200000762939453
-2.2733330726623535
-2.12666654586792
-1.9800000190734863
-1.8333333730697632
-1.68666672706604
-1.5399999618530273
-1.3933334350585938
-1.246666669845581
-1.0999999046325684
-0.95333331823349
-0.8066666126251221
-0.6599999666213989
-2.7133333683013916
-2.546722650527954
-2.4376471042633057
-2.256925344467163
-2.130113124847412
-1.9901177883148193
-1.8533424139022827
-1.6499760150909424
-1.5141934156417847
-1.3378466367721558
-1.2456353902816772
-1.1407005786895752
-0.9647008776664734
-0.7996415495872498
-0.6498168110847473
-0.5133334398269653
-2.566666603088379
-2.381755828857422
-2.2598228454589844
-2.10842227935791
-2.0590643882751465
-1.8520196676254272
-1.6666464805603027
-1.5737285614013672
-1.352033257484436
-1.2558717727661133
-1.069661021232605
-0.9429706335067749
-0.7972425222396851
-0.6786413192749023
-0.5240086913108826
-0.36666667461395264
-2.4200000762939453
-2.2814860343933105
-2.1293411254882812
-1.936632752418518
-1.8359100818634033
-1.7112146615982056
-1.4872456789016724
-1.3928810358047485
-1.2049988508224487
-1.014194369316101
-0.9047718048095703
-0.8787689208984375
-0.6642799377441406
-0.4846171438694
-0.29163703322410583
-0.21999990940093994
-2.2733330726623535
-2.1297645568847656
-1.9169796705245972
-1.7877944707870483
-1.6895301342010498
-1.5411020517349243
-1.4274414777755737
-1.214677333831787
-1.1014305353164673
-0.935921847820282
-0.7859774231910706
-0.6424826383590698
-0.49945610761642456
-0.3586183190345764
-0.2410895824432373
-0.07333338260650635
-2.12666654586792
-1.9579534530639648
-1.8292207717895508
-1.6659737825393677
-1.4695767164230347
-1.313557744026184
-1.2118433713912964
-1.0566343069076538
-0.8904436826705933
-0.7762948870658875
-0.6299697160720825
-0.4687631130218506
-0.39485448598861694
-0.3097052276134491
-0.024891389533877373
0.07333338260650635
-1.9800000190734863
-1.7604634761810303
-1.6572034358978271
-1.5318020582199097
-1.4239636659622192
-1.3191273212432861
-1.1455000638961792
-0.8889580368995667
-0.8146037459373474
-0.7161167860031128
-0.4742025136947632
-0.39133650064468384
-0.18417997658252716
0.02893814444541931
0.06097135692834854
0.22000014781951904
-1.8333332538604736
-1.6898713111877441
-1.5111262798309326
-1.4181623458862305
-1.262515664100647
-1.1845964193344116
-0.9439291954040527
-0.8616598844528198
-0.7007129788398743
-0.5217742323875427
-0.3560222089290619
-0.2571238577365875
0.011578349396586418
0.09755205363035202
0.24379520118236542
0.36666667461395264
-1.68666672706604
-1.5759286880493164
-1.4143012762069702
-1.237608790397644
-1.0868072509765625
-0.9597644805908203
-0.830951988697052
-0.6869942545890808
-0.5150365829467773
-0.3757036328315735
-0.25425440073013306
-0.038347888737916946
0.055480651557445526
0.26958152651786804
0.34861379861831665
0.5133334994316101
-1.5399999618530273
-1.3696616888046265
-1.246778130531311
-1.1578282117843628
-0.9907506704330444
-0.7843223214149475
-0.6557149887084961
-0.5257906913757324
-0.3575150966644287
-0.21780197322368622
-0.1048586294054985
0.11923741549253464
0.2410609871149063
0.3247806429862976
0.5352421998977661
0.6600000262260437
-1.3933334350585938
-1.260360598564148
-1.1173814535140991
-0.9633878469467163
-0.8110581636428833
-0.6712738275527954
-0.52523273229599
-0.3608063757419586
-0.22291524708271027
-0.0616711787879467
0.04931464046239853
0.16523881256580353
0.3612592816352844
0.5344017744064331
0.7070950269699097
0.8066669702529907
-1.2466667890548706
-1.1488698720932007
-0.9881846308708191
-0.8580125570297241
-0.6178498864173889
-0.512482762336731
-0.39584457874298096
-0.2316795438528061
-0.04580698534846306
0.07806546241044998
0.20078572630882263
0.3869142234325409
0.5048533082008362
0.6215298175811768
0.8085170984268188
0.9533334970474243
-1.1000001430511475
-0.9397215843200684
-0.767626941204071
-0.5912697911262512
-0.5549634695053101
-0.4398859739303589
-0.20263943076133728
-0.06321807205677032
0.06051936000585556
0.21850669384002686
0.36668384075164795
0.5110777616500854
0.6448010206222534
0.7975104451179504
0.9481015205383301
1.1000001430511475
-0.9533333778381348
-0.8133490681648254
-0.6524563431739807
-0.509710967540741
-0.33160531520843506
-0.20226572453975677
-0.09134552627801895
0.09825818985700607
0.2120571732521057
0.3653833866119385
0.5451269745826721
0.6777026057243347
0.7885051965713501
0.9274569153785706
1.1220788955688477
1.246666669845581
-0.8066668510437012
-0.6643784046173096
-0.5196165442466736
-0.37167131900787354
-0.19217140972614288
-0.07894241809844971
0.09512290358543396
0.2087264508008957
0.4068288207054138
0.5266267657279968
0.6824949979782104
0.7966036796569824
0.9391875863075256
1.0706452131271362
1.2635459899902344
1.3933334350585938
-0.6600000262260437
-0.5133334398269653
-0.36666685342788696
-0.21999990940093994
-0.07333308458328247
0.07333362102508545
0.22000014781951904
0.36666667461395264
0.5133334994316101
0.6600000262260437
0.8066669702529907
0.9533334970474243
1.0999999046325684
1.2466667890548706
1.3933331966400146
1.540000081062317
-2.7133333683013916
-2.566666603088379
-2.4200000762939453
-2.2733330726623535
-2.12666654586792
-1.9800000190734863
-1.8333334922790527
-1.6866666078567505
-1.540000081062317
-1.3933335542678833
-1.246666669845581
-1.1000001430511475
-0.9533335566520691
-0.8066670298576355
-0.6600000858306885
-0.5133333206176758
-2.566666603088379
-2.3858981132507324
-2.3035852909088135
-2.1230061054229736
-1.968977689743042
-1.839593529701233
-1.721799373626709
-1.5038338899612427
-1.3944281339645386
-1.238847017288208
-1.1063549518585205
-0.906626284122467
-0.8221883773803711
-0.6153331398963928
-0.49838271737098694
-0.36666643619537354
-2.4200000762939453
-2.299028158187866
-2.129997968673706
-2.029560089111328
-1.89761483669281
-1.6629778146743774
-1.5104339122772217
-1.402755618095398
-1.2416534423828125
-1.1289403438568115
-0.8932019472122192
-0.7717727422714233
-0.6250178217887878
-0.5253412127494812
-0.3802768588066101
-0.2199997901916504
-2.2733330726623535
-2.1217715740203857
-1.9950143098831177
-1.7959423065185547
-1.7525169849395752
-1.387756109237671
-1.4171291589736938
-1.3004069328308105
-1.1149852275848389
-0.8947083353996277
-0.8506441712379456
-0.609956681728363
-0.5196466445922852
-0.35827699303627014
-0.24984273314476013
-0.07333314418792725
-2.12666654586792
-1.9388376474380493
-1.7892638444900513
-1.6695677042007446
-1.578909158706665
-1.4329527616500854
-1.259874939918518
-1.1092636585235596
-0.8802565336227417
-0.7074348330497742
-0.6775646209716797
-0.4779917597770691
-0.3696729838848114
-0.20066139101982117
-0.055752310901880264
0.07333362102508545
-1.9800000190734863
-1.8480068445205688
-1.7218725681304932
-1.4957977533340454
-1.4228565692901611
-1.2113076448440552
-1.1375534534454346
-0.9630258083343506
-0.7641509175300598
-0.6073518395423889
-0.5388125777244568
-0.3184387683868408
-0.20681147277355194
0.022218381986021996
0.05841904506087303
0.2200002670288086
-1.8333333730697632
-1.6748400926589966
-1.4875338077545166
-1.4512907266616821
-1.204460620880127
-1.0881818532943726
-0.98057621717453
-0.7156972289085388
-0.6362746357917786
-0.5471736788749695
-0.2825002074241638
-0.2613150179386139
-0.08365331590175629
0.012789955362677574
0.21784834563732147
0.36666667461395264
-1.68666672706604
-1.5452855825424194
-1.394169569015503
-1.2106622457504272
-1.110442876815796
-1.025923252105713
-0.8303361535072327
-0.6603170037269592
-0.524270236492157
-0.39714086055755615
-0.17295584082603455
-0.08974996209144592
-0.007324417121708393
0.2274562567472458
0.3329628109931946
0.5133335590362549
-1.5399999618530273
-1.4282619953155518
-1.2602652311325073
-1.1194863319396973
-0.9304138422012329
-0.7860674858093262
-0.6725425124168396
-0.4799838662147522
-0.38092032074928284
-0.23500727117061615
-0.12050928175449371
0.0570012666285038
0.16870546340942383
0.4096367061138153
0.5666981339454651
0.6600001454353333
-1.3933333158493042
-1.293998122215271
-1.0774017572402954
-0.9436197876930237
-0.7621565461158752
-0.6408341526985168
0.0
0.0
0.0
0.0
0.0659932866692543
0.23794053494930267
0.2907235026359558
0.5243443846702576
0.6965546607971191
0.8066667914390564
-1.246666669845581
-1.113345742225647
-0.9528958797454834
-0.7948893308639526
-0.6725370287895203
-0.523899257183075
0.0
0.0
0.0
0.0
0.19261257350444794
0.3917691111564636
0.5131798386573792
0.6559876203536987
0.7752253413200378
0.9533334970474243
-1.1000001430511475
-0.8846320509910583
-0.8534431457519531
-0.6399864554405212
-0.5155196189880371
-0.40435275435447693
0.0
0.0
0.0
0.0
0.33843323588371277
0.49523040652275085
0.5434762239456177
0.865973174571991
1.0072349309921265
1.1000001430511475
-0.9533334970474243
-0.8127355575561523
-0.6669855117797852
-0.5086365342140198
-0.3566790819168091
-0.222200408577919
-0.07950955629348755
0.05421145260334015
0.23292261362075806
0.38216787576675415
0.5309972763061523
0.7592933177947998
0.7773099541664124
0.9639812111854553
1.0854355096817017
1.2466667890548706
-0.8066667318344116
-0.6863097548484802
-0.5308046936988831
-0.33615604043006897
-0.14934948086738586
-0.07011792808771133
0.061296697705984116
0.2334374636411667
0.3824206590652466
0.5227944850921631
0.6909406781196594
0.8032612204551697
0.9071739315986633
1.0754414796829224
1.228362798690796
1.3933333158493042
-0.6600000858306885
-0.5435530543327332
-0.40902698040008545
-0.280867338180542
-0.04514864832162857
0.07693782448768616
0.245153546333313
0.3956320881843567
0.5077868103981018
0.6535853147506714
0.8028367757797241
0.9185680747032166
1.0969113111495972
1.2310751676559448
1.4066210985183716
1.540000081062317
-0.5133333206176758
-0.36666643619537354
-0.2199997901916504
-0.07333332300186157
0.07333362102508545
0.2200002670288086
0.36666667461395264
0.5133335590362549
0.6600001454353333
0.8066667914390564
0.9533334970474243
1.1000001430511475
1.2466667890548706
1.3933333158493042
1.5399999618530273
1.6866668462753296
-2.566666603088379
-2.4200000762939453
-2.2733333110809326
-2.12666654586792
-1.9800000190734863
-1.8333334922790527
-1.68666672706604
-1.540000081062317
-1.3933334350585938
-1.246666669845581
-1.1000001430511475
-0.9533334970474243
-0.8066669702529907
-0.6600001454353333
-0.5133334994316101
-0.36666667461395264
-2.4200000762939453
-2.288893222808838
-2.1246864795684814
-1.9803152084350586
-1.8183954954147339
-1.6946609020233154
-1.513505220413208
-1.3901504278182983
-1.229589581489563
-1.0870107412338257
-0.959450900554657
-0.806872546672821
-0.7249695658683777
-0.5192822217941284
-0.3501516878604889
-0.21999990940093994
-2.2733333110809326
-2.103311061859131
-1.979521632194519
-1.8252243995666504
-1.668190598487854
-1.5737577676773071
-1.417535424232483
-1.2696062326431274
-1.1162641048431396
-0.962465226650238
-0.7634412050247192
-0.6399304866790771
-0.5241273045539856
-0.40165403485298157
-0.2516826391220093
-0.07333314418792725
-2.12666654586792
-2.0465598106384277
-1.846612572669983
-1.6528226137161255
-1.509570837020874
-1.4087333679199219
-1.1710808277130127
-1.0557712316513062
-0.9679411053657532
-0.7423953413963318
-0.5650355815887451
-0.4938701391220093
-0.4238338768482208
-0.23544971644878387
-0.04791014641523361
0.07333362102508545
-1.9800000190734863
-1.8255072832107544
-1.6714807748794556
-1.5700843334197998
-1.3505610227584839
-1.2800102233886719
-1.134371042251587
-0.9829062819480896
-0.7671881318092346
-0.6359780430793762
-0.45619603991508484
-0.4174547493457794
-0.22043442726135254
-0.035229384899139404
0.12339719384908676
0.2200002670288086
-1.8333334922790527
-1.7314273118972778
-1.5742125511169434
-1.4400994777679443
-1.2291113138198853
-1.1324979066848755
-0.9058437943458557
-0.7750411629676819
-0.6142233610153198
-0.4283086359500885
-0.38029858469963074
-0.2627584636211395
-0.0615367665886879
0.12366687506437302
0.2035522609949112
0.36666691303253174
-1.686666488647461
-1.6164121627807617
-1.3460479974746704
-1.2397549152374268
-1.0782719850540161
-0.9108788371086121
-0.7997887134552002
-0.6518710851669312
-0.5403472781181335
-0.3448113799095154
-0.12792818248271942
-0.029554642736911774
0.13752801716327667
0.2945994734764099
0.35033586621284485
0.5133335590362549
-1.540000081062317
-1.3725991249084473
-1.257603406906128
-1.140821099281311
-0.9181032180786133
-0.8764610886573792
-0.6971619725227356
-0.49856775999069214
-0.4335378408432007
-0.21302123367786407
-0.08250156790018082
0.06470514833927155
0.14593859016895294
0.3862922191619873
0.5162668228149414
0.6599999666213989
-1.3933334350585938
-1.2003049850463867
-1.2048999071121216
-1.0156930685043335
-0.8626484274864197
-0.7060028910636902
-0.5576781630516052
-0.3785509765148163
-0.20472121238708496
-0.051282379776239395
0.038238756358623505
0.2278323620557785
0.32755613327026367
0.4796224534511566
0.6106809973716736
0.8066667318344116
-1.246666669845581
-1.0818610191345215
-0.9896799921989441
-0.823792576789856
-0.6500307321548462
-0.47350287437438965
0.0
0.0
0.0
0.0
0.2504121959209442
0.3477191925048828
0.4903075695037842
0.713262677192688
0.7522269487380981
0.9533334374427795
-1.1000001430511475
-0.9967613220214844
-0.7340015172958374
-0.5950958132743835
-0.46765968203544617
-0.36307185888290405
0.0
0.0
0.0
0.0
0.3309168815612793
0.5428130626678467
0.6987756490707397
0.8821340203285217
0.9911581873893738
1.1000001430511475
-0.9533334970474243
-0.7537106871604919
-0.6665455102920532
-0.5193154811859131
-0.37767526507377625
-0.23282484710216522
0.0
0.0
0.0
0.0
0.5073455572128296
0.6005775332450867
0.7901096343994141
0.9889967441558838
1.106703281402588
1.246666669845581
-0.8066669702529907
-0.6373018026351929
-0.511980414390564
-0.2592380940914154
-0.24418409168720245
-0.08612553030252457
0.0
0.0
0.0
0.0
0.6938790678977966
0.7506824731826782
0.9073816537857056
1.1438112258911133
1.2499738931655884
1.3933334350585938
-0.660000205039978
-0.4960457980632782
-0.37114593386650085
-0.2510656416416168
0.008211912587285042
0.08879826962947845
0.2413686215877533
0.0
0.0
0.6718086004257202
0.7532790899276733
0.9285868406295776
1.1167885065078735
1.2302216291427612
1.3768283128738403
1.5399999618530273
-0.5133335590362549
-0.33040738105773926
-0.219342440366745
-0.06607300788164139
0.07529518008232117
0.24182118475437164
0.3654956519603729
0.5250536799430847
0.6716387271881104
0.7810620069503784
0.9884058833122253
1.123371958732605
1.2444819211959839
1.376492977142334
1.5655784606933594
1.6866668462753296
-0.3666667342185974
-0.21999996900558472
-0.07333290576934814
0.07333332300186157
0.2200002670288086
0.36666691303253174
0.5133335590362549
0.6599999666213989