# vtk DataFile Version 3.0
Zombie Bunny baseline point cloud
ASCII
DATASET POLYDATA
POINTS 468 float
0.45315974950790405 0.7416810393333435 -0.05544988438487053
-1.0273970365524292 -0.07946518808603287 -0.8468798995018005
0.48396870493888855 -0.26614347100257874 -0.02149367146193981
0.17549289762973785 0.5087705850601196 0.3630375266075134
-1.0656541585922241 0.5417963266372681 0.5788465738296509
-1.0569484233856201 0.730526864528656 0.389614462852478
-0.030209923163056374 -0.32509493827819824 -0.9048559665679932
-1.000444769859314 0.36495524644851685 0.26016509532928467
0.4844774007797241 1.0104931592941284 -0.8383387327194214
-0.9789711236953735 -0.685116171836853 0.38419440388679504
-0.544516921043396 -0.9288702011108398 0.31751835346221924
0.7218961119651794 -0.8506593108177185 0.8800525665283203
0.5334863066673279 0.3458116054534912 1.0981227159500122
0.3373756408691406 -0.9615758061408997 -0.93171626329422
-0.5893673896789551 1.042236566543579 -0.39777159690856934
-0.5098475813865662 -0.20441339910030365 0.9434448480606079
0.830785870552063 0.012992994859814644 -0.9758092164993286
0.2918875813484192 0.18905287981033325 0.9999338388442993
-1.0353236198425293 0.659452497959137 0.9732493162155151
0.813043475151062 -0.6905404925346375 0.9224795699119568
-1.0691391229629517 0.24027113616466522 -0.1460895836353302
-0.5468399524688721 -0.8369435667991638 -0.7929404973983765
0.9192546010017395 0.3383748233318329 0.9202970266342163
-0.9509671926498413 0.5784668326377869 -0.5693618059158325
0.6996818780899048 -0.6295275688171387 -0.1018332988023758
-0.28627505898475647 0.1474698781967163 0.8197671175003052
-0.8563566207885742 0.8576858043670654 0.41054263710975647
0.3996497690677643 0.9114722013473511 0.4876803159713745
0.4709230363368988 0.7581928372383118 -0.6220840811729431
0.9663651585578918 -0.9964196681976318 -0.45505303144454956
0.8862830996513367 0.4849216043949127 -0.9657079577445984
-0.833433210849762 0.03225624933838844 -0.5729192495346069
-1.0822176933288574 -0.503601610660553 -0.3024691641330719
-0.7475024461746216 -0.6958053112030029 -0.2945496439933777
0.9365584254264832 0.2706336975097656 -0.3322348892688751
-0.41460058093070984 -0.6971842646598816 -0.28183281421661377
-0.4682041108608246 -1.037701964378357 0.5098708868026733
0.07081408053636551 -0.9771286249160767 -0.6986833214759827
0.6458241939544678 -0.5395846366882324 -0.11969152092933655
-1.0800305604934692 0.08878976851701736 0.635025680065155
-0.9167147278785706 0.13054049015045166 -1.0994246006011963
0.1594751626253128 0.7922503352165222 -0.4410181939601898
0.49117186665534973 -0.4340420365333557 0.5309062600135803
-0.44302308559417725 1.0098296403884888 -1.0282156467437744
0.7008407115936279 -0.74043869972229 -0.7378829121589661
0.2598474621772766 -0.5474514961242676 -0.23035086691379547
-0.6974585652351379 0.025342922657728195 -0.6618683338165283
-0.29793646931648254 -0.22999009490013123 -1.0345631837844849
-0.20713770389556885 0.35095298290252686 -0.8011233806610107
0.37654978036880493 0.6432732343673706 0.9320999383926392
0.446288138628006 -0.25672340393066406 -0.6093975901603699
-1.0348578691482544 0.8671313524246216 0.683810293674469
-0.5788701176643372 0.48822954297065735 -0.8309553265571594
-0.8819441795349121 -1.0236384868621826 0.3914774954319
-0.40293169021606445 0.6991168260574341 0.18187592923641205
-1.003524899482727 -0.43284350633621216 1.0076525211334229
0.7772529721260071 -0.18599258363246918 0.9592522382736206
-1.0779964923858643 0.4894378185272217 -1.0642952919006348
-0.7448833584785461 -0.8979253172874451 0.9241665005683899
-0.7181246280670166 -0.9044512510299683 0.01949494704604149
0.8862091302871704 0.7060660123825073 -0.24450327455997467
0.6897194385528564 0.6317623257637024 -0.4393126964569092
-0.40775859355926514 0.0876876562833786 -0.7161269187927246
0.10764586925506592 -0.5719813108444214 -0.09456148743629456
-0.6109710335731506 0.8308290243148804 -0.6430690884590149
0.06153985485434532 -0.8169834613800049 -0.9152600765228271
0.9094743132591248 0.5128087401390076 0.12400438636541367
0.9833131432533264 -0.9066765904426575 0.3370209038257599
-0.868659496307373 -0.7280998826026917 0.20265746116638184
0.9083272814750671 0.417044460773468 0.06495437026023865
-0.08970940113067627 1.0460798740386963 -0.06556328386068344
0.4623909890651703 -0.4533000886440277 -0.8055709600448608
0.4137057960033417 0.25468143820762634 -0.7813103199005127
-0.7478941679000854 -0.43741530179977417 -0.49306520819664
-0.5949999690055847 0.9683808088302612 -0.5126175880432129
0.7491971850395203 0.16270044445991516 0.6542849540710449
-1.0165472030639648 1.0390169620513916 -0.8067997694015503
-0.8011001944541931 -0.3353475034236908 -0.8746892809867859
-0.49710938334465027 -0.8965796828269958 -0.09595045447349548
-0.753643274307251 -0.24643030762672424 0.08306515216827393
0.7807058095932007 0.13496950268745422 -0.24371083080768585
-0.6239399313926697 0.6019838452339172 -0.2255694419145584
-1.0078099966049194 -1.0442655086517334 -0.9684827923774719
-0.3201487362384796 0.01943160966038704 -0.92033851146698
0.7931905388832092 -0.9930219054222107 -0.15398043394088745
0.006610374432057142 0.8400779962539673 -0.2983027994632721
-0.577782154083252 -0.29546529054641724 0.9373664259910583
0.15213292837142944 0.655479907989502 0.9865663647651672
0.18144164979457855 -0.6076666712760925 -0.7226693630218506
0.3259786069393158 1.0810215473175049 -0.3050799071788788
-0.7644762396812439 0.33189594745635986 0.5401321649551392
1.0762298107147217 0.21857377886772156 -0.6368428468704224
-0.1271643340587616 1.0792887210845947 0.48037785291671753
0.4469631314277649 0.4921252131462097 -0.5022061467170715
-0.17448848485946655 -0.33269503712654114 -0.20027990639209747
-0.5474253296852112 -0.8711551427841187 -0.7494807839393616
-0.9121845960617065 -0.009103278629481792 -0.9930706024169922
-0.06853003799915314 -0.6735363006591797 -0.972919762134552
0.8924856781959534 -0.3347567915916443 -0.9704806208610535
0.5839841365814209 0.05387169122695923 -0.8113824725151062
0.38023442029953003 0.07758426666259766 -0.04297786206007004
-0.44187915325164795 -0.5932831168174744 0.05961141735315323
0.28884920477867126 0.47507286071777344 -0.9846814870834351
0.6082053780555725 -0.9373223185539246 1.0920990705490112
-0.01057417318224907 0.3266962766647339 -0.9165353775024414
-0.44544023275375366 -0.5125889778137207 -1.0920791625976562
0.063304603099823 -0.9082546830177307 -0.3522617518901825
0.8145253658294678 -0.0322984978556633 -0.6340580582618713
-0.8876835107803345 -0.18406708538532257 0.34094271063804626
0.9855404496192932 0.19102169573307037 0.14337152242660522
-0.007420472335070372 -0.7755336165428162 0.2010064572095871
1.0409088134765625 -0.9591179490089417 -0.9002465009689331
0.24300329387187958 -0.5272622108459473 -0.26483601331710815
-0.4156236946582794 -0.15641753375530243 0.6371921300888062
-0.7558460831642151 -1.0602648258209229 -0.5339870452880859
0.17960834503173828 -0.5491310954093933 0.5351800322532654
0.7200672030448914 -0.6745049357414246 -0.7213081121444702
-0.584437370300293 -0.2981202304363251 0.704576849937439
-0.5900825262069702 0.6318582892417908 -0.34005191922187805
0.5081681609153748 0.9321792721748352 1.034436821937561
-1.0751973390579224 0.29564371705055237 0.2924420237541199
-0.5986098647117615 0.031414490193128586 -0.5696533918380737
1.0169745683670044 0.1049126386642456 0.677110493183136
0.39818599820137024 0.159871906042099 0.13934659957885742
-0.06330418586730957 -0.5451940298080444 -0.2334326207637787
-0.09166113287210464 0.5669544339179993 0.6135293245315552
0.5216747522354126 0.36421409249305725 -1.078604817390442
-0.39209017157554626 0.11263184994459152 0.5499200820922852
1.0736560821533203 0.5209338068962097 0.2972496449947357
0.537630021572113 -0.8899753093719482 -0.6344524621963501
-0.9206871390342712 1.0294970273971558 0.914340615272522
0.7999759912490845 -0.3376099765300751 0.7983872294425964
0.7226008176803589 -0.044910840690135956 1.0520118474960327
-0.08608031272888184 0.8233152031898499 -0.2016981691122055
-0.34545883536338806 0.7902340292930603 -0.2613449692726135
1.0577510595321655 0.5806047320365906 -0.42516547441482544
-0.21695570647716522 -1.0248156785964966 0.2759794592857361
-0.5990328788757324 0.7563215494155884 0.7492842078208923
0.7741371393203735 -0.22104309499263763 -0.25209611654281616
0.701783299446106 0.10523950308561325 -1.066458821296692
0.9503359198570251 -0.72487473487854 -1.058281421661377
0.5110763311386108 0.7986783385276794 0.9480440616607666
0.6371071934700012 0.325356125831604 0.790004551410675
0.3426237404346466 -0.908201277256012 -0.7237864136695862
0.4813622534275055 1.082779049873352 -0.08506099879741669
0.8493697047233582 -0.8154063820838928 -0.964401364326477
-0.8822948336601257 0.09832285344600677 -0.035534944385290146
-1.0165624618530273 0.14209690690040588 -0.13019093871116638
0.8122411966323853 -0.8145965933799744 0.6507618427276611
0.09423030912876129 -0.48847299814224243 0.5917955636978149
-1.073885440826416 -0.8933491706848145 -0.8205982446670532
-1.0852209329605103 0.9765206575393677 0.7968809604644775
-0.041290394961833954 -0.30531319975852966 1.0236659049987793
-0.9130444526672363 0.8915199637413025 0.28864970803260803
0.6021783351898193 0.9692965745925903 0.5066124796867371
-0.9670817255973816 -0.02691882848739624 -0.34294888377189636
0.7341459393501282 -0.6926867961883545 0.5018765330314636
0.7163572311401367 0.07471799850463867 -0.4914677143096924
0.5821783542633057 0.6967281699180603 -0.7239378094673157
0.7815312147140503 -0.9607069492340088 -0.8006132245063782
-0.7410303950309753 1.0326255559921265 -0.05541591718792915
0.3062690496444702 -0.28381067514419556 -0.7590392827987671
0.6356849074363708 -0.9573041200637817 0.02468067780137062
-0.3446670174598694 -0.027309074997901917 0.9005612730979919
0.04180321842432022 0.8010843992233276 -0.47415533661842346
0.8368985056877136 -0.23249530792236328 1.0902655124664307
-0.8916115164756775 0.021379180252552032 -0.4013667106628418
[...]
POINT_DATA 468
SCALARS solution float 1
LOOKUP_TABLE default
1.0969512462615967
-1.9672387838363647
0.18854714930057526
1.011010766029358
0.05156054347753525
0.04661526158452034
-1.1933902502059937
-0.3328699767589569
0.6718289256095886
-1.2482621669769287
-1.1837637424468994
0.7191162705421448
1.9780504703521729
-1.5422028303146362
0.040051572024822235
0.18678006529808044
-0.10003050416707993
1.458499550819397
0.5972234010696411
1.1041429042816162
-0.9909234642982483
-2.161449909210205
2.2054800987243652
-0.9153420925140381
0.014279920607805252
0.6850556135177612
0.3938809037208557
1.799172043800354
0.6487835049629211
-0.5120485424995422
0.41134771704673767
-1.4174888134002686
-1.8865762948989868
-1.6903177499771118
0.8358957767486572
-1.393229365348816
-1.002663016319275
-1.5939351320266724
-0.0028886436484754086
-0.3590001165866852
-1.8858121633529663
0.5156369805335999
0.5618135333061218
-0.44899481534957886
-0.7528250217437744
-0.49597829580307007
-1.318205714225769
-1.5130919218063354
-0.643541157245636
1.916841983795166
-0.5276885628700256
0.5021708011627197
-0.9517351388931274
-1.527348279953003
0.4946761131286621
-0.4585973918437958
1.5797866582870483
-1.642939567565918
-0.7235581874847412
-1.6192998886108398
1.3345495462417603
0.8896697759628296
-1.121989369392395
-0.557374894618988
-0.4224936068058014
-1.7261298894882202
1.5184279680252075
0.41060322523117065
-1.4309790134429932
1.4227454662322998
0.8791938424110413
-0.7695860266685486
-0.16371627151966095
-1.6435760259628296
-0.1452063024044037
1.5776677131652832
-0.7742835879325867
-1.9733023643493652
-1.516666293144226
-0.9032573103904724
0.6596064567565918
-0.2560586631298065
-3.031289577484131
-1.2550357580184937
-0.3250572681427002
0.5499970316886902
0.0488402433693409
1.813253402709961
-1.2019990682601929
1.0824416875839233
0.12470719963312149
0.6826512813568115
1.4411195516586304
0.3974296450614929
-0.6781908869743347
-2.2241299152374268
-1.8824973106384277
-1.7626959085464478
-0.39072519540786743
-0.18055292963981628
0.31625160574913025
-1.0036661624908447
-0.21524591743946075
0.7577947974205017
-0.5943454504013062
-2.0550425052642822
-1.2314757108688354
0.15401345491409302
-0.7459015250205994
1.316650390625
-0.6186174154281616
-0.8159995675086975
-0.5770412087440491
0.08749109506607056
-2.316067695617676
0.15731550753116608
-0.6725773215293884
-0.18881072103977203
-0.2646103799343109
2.4730920791625977
-0.48948609828948975
-1.1989879608154297
1.7858437299728394
0.7016023397445679
-0.8261469602584839
1.0947273969650269
-0.1816209852695465
0.2634911835193634
1.918361783027649
-1.0483617782592773
1.0136231184005737
1.2703113555908203
1.7205196619033813
0.5390554070472717
0.1982591152191162
1.2203915119171143
-0.9387714266777039
0.8812330961227417
0.2229873239994049
-0.2641355097293854
-0.8197070956230164
2.2761504650115967
1.7741341590881348
-1.3149503469467163
1.4846285581588745
-0.8873703479766846
-0.8360400795936584
-0.9900450110435486
0.6400232911109924
0.19519414007663727
-2.7832441329956055
0.6698510050773621
0.6688557863235474
0.23107658326625824
2.1126694679260254
-1.3759751319885254
0.5667246580123901
0.3420972228050232
0.5720075368881226
-0.9680007696151733
0.22300252318382263
-0.7335514426231384
-0.2414916306734085
0.536658763885498
0.393616259098053
1.6955337524414062
-1.3162277936935425
0.31861788034439087
0.9166030287742615
1.02968168258667
0.13635623455047607
1.3027042150497437
-0.7759613990783691
1.4819270372390747
0.5628646016120911
-2.0130655765533447
2.0508904457092285
0.07158330827951431
-0.36928170919418335
0.07374124228954315
-0.24493752419948578
0.4179650843143463
-0.11474082618951797
1.6699353456497192
-0.2747672498226166
-0.15335816144943237
0.1890338957309723
0.3862164616584778
-0.27424633502960205
0.013434466905891895
0.12355900555849075
-0.2606186270713806
-0.40963053703308105
-0.7165544033050537
-0.522366464138031
0.32596540451049805
0.3982996642589569
-1.2507725954055786
1.3857823610305786
-0.777985155582428
-1.1481895446777344
0.515404224395752
0.6129534840583801
-2.2945828437805176
-1.1121439933776855
0.37054410576820374
-1.059261679649353
-0.41010791063308716
0.3286387026309967
-0.2607802450656891
0.6013365387916565
0.23043282330036163
-1.0154187679290771
0.4512667655944824
-0.09578306972980499
1.2640600204467773
-0.4209948480129242
0.5724139213562012
0.12787801027297974
-0.9034590721130371
0.6111600995063782
1.2441473007202148
2.229740858078003
1.3360086679458618
-0.4625430405139923
0.7598595023155212
-0.8956167101860046
-1.2510559558868408
1.1983474493026733
0.7654427289962769
0.9403241276741028
-0.45377054810523987
0.26528099179267883
0.10110826045274734
-0.26650571823120117
2.140598773956299
0.9649996161460876
-0.10267557948827744
0.8400269746780396
-0.14767605066299438
1.534026026725769
1.174889326095581
0.5305162072181702
-0.16885726153850555
-0.6015848517417908
-0.9625431895256042
0.746168315410614
-0.5838157534599304
2.5168426036834717
1.5577194690704346
-0.1703902930021286
-1.793789029121399
-0.09588444977998734
0.9757864475250244
1.0971074104309082
-1.228476643562317
0.12393811345100403
-2.2314670085906982
1.35348379611969
-1.7211756706237793
-0.20119214057922363
-1.0148415565490723
0.1825072318315506
0.09765764325857162
0.8525522947311401
-0.46392834186553955
-0.4564876854419708
1.8078378438949585
0.5781164765357971
-0.41448891162872314
1.9650558233261108
-1.2262535095214844
2.6657471656799316
0.7159837484359741
-2.1140735149383545
0.39402779936790466
-2.201916456222534
-1.2174865007400513
-0.9562307596206665
0.2956515848636627
0.5623586773872375
0.6827223896980286
-1.5257501602172852
-0.1595451980829239
2.9160802364349365
0.8167638778686523
-1.5025873184204102
0.831496000289917
0.834407389163971
-0.8111169338226318
2.175306558609009
-0.3484881818294525
-1.4094398021697998
-0.016750894486904144
-1.065366506576538
-1.3948254585266113
-1.6353917121887207
-0.9580461978912354
1.3527796268463135
-2.2557151317596436
0.8955740928649902
1.9376617670059204
1.0238384008407593
-1.0042840242385864
-0.14003074169158936
-0.5707142949104309
-0.18295004963874817
0.1215294823050499
-2.02276349067688
-0.7208954095840454
-0.5912377238273621
0.732715368270874
-1.093827247619629
-1.6186933517456055
0.5722234845161438
-0.540192723274231
-0.40262526273727417
-0.43781325221061707
-1.2764149904251099
-1.1265782117843628
-0.04336647689342499
0.21743787825107574
0.836336076259613
-1.6906031370162964
0.0055108447559177876
0.6839896440505981
1.4792333841323853
-1.429189920425415
0.20532357692718506
-0.3127710819244385
2.3026115894317627
0.9763280153274536
-0.49039411544799805
1.1516155004501343
0.3268258571624756
0.735213041305542
2.2836525440216064
0.6629713177680969
-0.7728846073150635
0.1381540298461914
-0.3748762011528015
-1.1443097591400146
1.8640440702438354
2.399973154067993
2.176476240158081
-0.04592157155275345
-0.8702250123023987
0.46111419796943665
-1.4084112644195557
-0.5172179937362671
1.1648820638656616
-0.6265256404876709
-1.4317541122436523
-0.23646914958953857
-0.14646409451961517
-0.1300496608018875
0.1026974767446518
-2.1878249645233154
1.0527468919754028
-0.6264250874519348
-0.641925573348999
-0.763316810131073
1.6961756944656372
-1.429594874382019
-0.4384712874889374
-0.485141783952713
-1.258134365081787
-0.23332789540290833
0.17548727989196777
-0.43832582235336304
-1.0525503158569336
1.3808672428131104
0.9082752466201782
0.975278377532959
1.2766942977905273
-2.151723623275757
1.3774676322937012
1.6960591077804565
0.09076172113418579
-1.2404884099960327
-0.5040594339370728
-0.37957513332366943
-0.03332784026861191
1.0413496494293213
-1.1248949766159058
-2.1181411743164062
1.8575103282928467
-0.8537365198135376
-1.103666067123413
-0.8393474817276001
0.5179044008255005
0.0647253468632698
-0.6895838379859924
1.7931417226791382
-2.2058396339416504
0.1616479456424713
-1.7274419069290161
-1.9146413803100586
1.448682188987732
-0.3215426206588745
-0.6614970564842224
0.1838412582874298
-0.4161436855792999
-1.3383890390396118
1.37179696559906
-1.2606416940689087
-1.1715762615203857
1.1462315320968628
0.9943591952323914
0.009323111735284328
-0.2557089626789093
-1.0020110607147217
-1.7902452945709229
-0.29059895873069763
2.5089313983917236
1.4332891702651978
1.5040209293365479
-1.9909789562225342
1.46699059009552
0.1974681317806244
-0.5297274589538574
-0.9943611025810242
-0.39655473828315735
1.6468331813812256
-0.9268064498901367
0.7037413716316223
1.9750350713729858
-0.250657856464386
-0.33759361505508423
0.6217272877693176
-0.9071611762046814
1.0395454168319702
-0.10853114724159241
0.3949090540409088
1.5057175159454346
-0.29092419147491455
-2.030282497406006
-1.2684006690979004
0.012880109250545502
-2.3240065574645996
-1.4024502038955688
-1.0229198932647705
0.4338279664516449
2.440014362335205
1.0774905681610107
0.6750209331512451
2.370166540145874
-0.5894235968589783
1.0053932666778564
-0.6791068911552429
-1.2289068698883057
1.591934323310852
0.1912708729505539
-0.19098937511444092
1.5972398519515991
-0.08108686655759811
-0.9071049094200134
0.17448440194129944
-1.4003467559814453
1.506798505783081
-1.0775527954101562
0.1940307319164276
-0.9653778672218323
-0.8050441741943359
-1.9521383047103882
-0.8180629014968872
-1.1746101379394531
0.0498361699283123
SCALARS exact float 1
LOOKUP_TABLE default
1.139390904456377
-1.9537421241402626
0.19633156247437
1.047301009297371
0.054988741874694824
0.06319290399551392
-1.2601608280092478
-0.37532442808151245
0.6566318273544312
-1.2798928916454315
-1.1558687686920166
0.7512893676757812
1.9774206280708313
-1.555916428565979
0.05509757995605469
0.2291838675737381
-0.13203035108745098
1.4808743000030518
0.5973781943321228
1.0449825525283813
-0.9749575704336166
-2.1767240166664124
2.1779264509677887
-0.941862165927887
-0.03167898952960968
0.680961936712265
0.4118718206882477
1.7988022863864899
0.6070317924022675
-0.48510754108428955
0.405496746301651
-1.3740962110459805
-1.8882884681224823
-1.7378574013710022
0.8749572336673737
-1.3936176598072052
-0.9960351884365082
-1.6049978658556938
-0.013451963663101196
-0.35621511191129684
-1.8855988383293152
0.5107073038816452
0.5880360901355743
-0.4614090919494629
-0.7774809002876282
-0.5179549008607864
-1.333983976393938
-1.5624897480010986
-0.6573081016540527
1.9519229531288147
-0.41983285546302795
0.5160837769508362
-0.9215959012508392
-1.5141051709651947
0.4780610650777817
-0.42871588468551636
1.5505126267671585
-1.6528539657592773
-0.7186421751976013
-1.6030809320509434
1.347771868109703
0.8821690678596497
-1.0361978560686111
-0.55889692902565
-0.42321109771728516
-1.6707036830484867
1.546287439763546
0.41365745663642883
-1.3941019177436829
1.3903261125087738
0.8908071890473366
-0.7964800596237183
-0.11292308568954468
-1.6783746778964996
-0.13923674821853638
1.5661825835704803
-0.7843300104141235
-2.01113697886467
-1.4896395206451416
-0.9170084297657013
0.671964481472969
-0.24752552807331085
-3.0205582976341248
-1.2210556380450726
-0.3538118004798889
0.5483855712227523
0.06411898136138916
1.7941792011260986
-1.1488943845033646
1.101920247077942
0.10755187273025513
0.6579607427120209
1.4325022399425507
0.4368821978569031
-0.7074634283781052
-2.1680612564086914
-1.9143584771081805
-1.7149861007928848
-0.4127517342567444
-0.17352664470672607
0.41484082490205765
-0.9755508527159691
-0.22075942158699036
0.7629821300506592
-0.6004132740199566
-2.0501083731651306
-1.1972118318080902
0.14816880971193314
-0.7308078855276108
1.3199336677789688
-0.5819476316682994
-0.8184556365013123
-0.5490949302911758
0.0651509016752243
-2.350097954273224
0.16565728187561035
-0.6757458448410034
-0.17798075079917908
-0.2982761561870575
2.474784255027771
-0.4871115982532501
-1.1368487663567066
1.798997700214386
0.6974045038223267
-0.8419308364391327
1.0888226255774498
-0.19271597266197205
0.2704617604613304
1.8918395340442657
-0.9867977499961853
1.0231505036354065
1.2607532441616058
1.7297018244862556
0.5355367213487625
0.18343022465705872
1.2131903171539307
-0.9657919257879257
0.9065728783607483
0.30099792778491974
-0.2594360187649727
-0.8328202366828918
2.257798731327057
1.7524678707122803
-1.2893639504909515
1.4790803045034409
-0.9304380416870117
-0.8195069245994091
-1.0046564936637878
0.648406445980072
0.1975528746843338
-2.7878328561782837
0.688180685043335
0.6770623102784157
0.2671252191066742
2.0780873894691467
-1.3369494378566742
0.5433356761932373
0.299607515335083
0.5549687147140503
-0.9797889590263367
0.23617924377322197
-0.7365809082984924
-0.29693853482604027
0.5285851806402206
0.3687322810292244
1.694668710231781
-1.2715990468859673
0.30678974092006683
0.9085543155670166
1.0868756771087646
0.14886874705553055
1.3178684711456299
-0.7901403903961182
1.4648173153400421
0.5271115303039551
-2.018154926598072
2.0495971962809563
0.10809695720672607
-0.36156684160232544
0.09270371496677399
-0.20477738231420517
0.406869500875473
-0.10202175378799438
1.614077389240265
-0.28586508333683014
-0.11786491191014647
0.15200287103652954
0.38366225361824036
-0.2612138092517853
0.04967716336250305
0.11700467765331268
-0.25393956154584885
-0.38631539046764374
-0.7088814824819565
-0.5315244570374489
0.3476581573486328
0.4185713827610016
-1.2445234283804893
1.3632955327630043
-0.7375027406960726
-1.1282119154930115
0.47499847412109375
0.6059689112007618
-2.2703553438186646
-1.1163679361343384
0.3912307694554329
-1.0388967394828796
-0.4087468385696411
0.3363631069660187
-0.3383054733276367
0.5881650000810623
0.14978766068816185
-0.9746424555778503
0.4347802400588989
-0.062625952064991
1.2645001411437988
-0.45117422938346863
0.6305299997329712
0.1184711642563343
-0.8259906265884638
0.550563633441925
1.2200202345848083
2.2201538681983948
1.2967970818281174
-0.4638599157333374
0.767905205488205
-0.8703616857528687
-1.2860514298081398
1.2576833441853523
0.7310871779918671
0.9383382108062506
-0.41048967838287354
0.25279711186885834
0.10042613744735718
-0.3287958949804306
2.144138067960739
0.9600059986114502
-0.08205732703208923
0.8255106806755066
-0.14214631915092468
1.5199697613716125
1.1813721060752869
0.5509406477212906
-0.1554810255765915
-0.6288719773292542
-0.9415854811668396
0.7062769383192062
-0.5477015003561974
2.5350369215011597
1.528971403837204
-0.194747656583786
-1.8183497190475464
-0.08154721558094025
0.9712584614753723
1.1002157405018806
-1.2312310338020325
0.11543264985084534
-2.1886309385299683
1.3176535964012146
-1.7245144248008728
-0.18189135193824768
-1.0082506090402603
0.191084086894989
0.11697816848754883
0.9244747906923294
-0.4058273732662201
-0.4481939859688282
1.7765749096870422
0.6323032826185226
-0.4142623841762543
1.9486601650714874
-1.2115423083305359
2.6339393854141235
0.6840324401855469
-2.1108168363571167
0.3797727352939546
-2.2167335152626038
-1.1754306256771088
-0.9877530187368393
0.2835547775030136
0.5309542119503021
0.7208271622657776
-1.5193909779191017
-0.2567959064617753
2.913772463798523
0.8140975832939148
-1.4961961507797241
0.7503713518381119
0.8243062347173691
-0.7716684192419052
2.202883005142212
-0.32117225229740143
-1.354348748922348
-0.04016140103340149
-1.0911540687084198
-1.3790020234882832
-1.6286325380206108
-0.975173830986023
1.3523987531661987
-2.2632983326911926
0.8874091506004333
1.9705867767333984
1.0559260845184326
-0.9968768805265427
-0.17015773057937622
-0.5625336170196533
-0.23519427329301834
0.1544802486896515
-2.0151112377643585
-0.6986788958311081
-0.606709860265255
0.7053095698356628
-1.1132603883743286
-1.6116781178861856
0.5797392725944519
-0.5300295524575631
-0.3314701318740845
-0.4671047329902649
-1.1987590491771698
-1.1067330166697502
-0.07060569524765015
0.2218058854341507
0.8322268724441528
-1.6385540515184402
0.01225849986076355
0.6825025975704193
1.4573839455842972
-1.3821357190608978
0.2054358422756195
-0.32263529673218727
2.3232367038726807
0.984299972653389
-0.5015819668769836
1.1147260665893555
0.2892441153526306
0.6986217498779297
2.2752068638801575
0.6873197555541992
-0.7270507528446615
0.10135757923126221
-0.4193198177963495
-1.1586202681064606
1.8687878251075745
2.382308006286621
2.1373558044433594
-0.01937424438074231
-0.8978953957557678
0.4684891141951084
-1.418153002858162
-0.5682297348976135
1.1498643159866333
-0.6487712264060974
-1.374484658241272
-0.24927108362317085
-0.14989227056503296
-0.14051039516925812
0.15785261988639832
-2.180975317955017
1.1172665059566498
-0.66871178150177
-0.6277830228209496
-0.7422841116786003
1.6992238461971283
-1.481033068150282
-0.38611841201782227
-0.4869539812207222
-1.2048156261444092
-0.20266667008399963
0.18488496355712414
-0.44571466743946075
-1.0546526908874512
1.3929502815008163
0.9129804372787476
0.9838891625404358
1.2541018463671207
-2.1539094746112823
1.3838423639535904
1.7157667726278305
0.11242036521434784
-1.2491364628076553
-0.5156983211636543
-0.3631642162799835
-0.08086324390023947
1.062288612127304
-1.1060154549777508
-2.119548410177231
1.8729598224163055
-0.8074773550033569
-1.1273563504219055
-0.8960377126932144
0.551828034222126
0.08239239454269409
-0.6884421845898032
1.7951338365674019
-2.189183294773102
0.15584057569503784
-1.7764374017715454
-1.889721691608429
1.4548656344413757
-0.32711663097143173
-0.6984332650899887
0.1895195096731186
-0.39481520652770996
-1.3494943976402283
1.3741156458854675
-1.2972146049141884
-1.1961182206869125
1.126339316368103
0.9853384494781494
-0.017573446035385132
-0.2509099543094635
-1.0008757747709751
-1.7963938415050507
-0.25836820900440216
2.503578782081604
1.4018916338682175
1.4885169044137
-1.9828197956085205
1.5198687389492989
0.2217106819152832
-0.5667710304260254
-0.9752286821603775
-0.36438319087028503
1.6506275832653046
-0.9833055436611176
0.6686499118804932
1.9845202565193176
-0.27381740510463715
-0.39228229969739914
0.6205673217773438
-0.8897683036630042
1.0681982189416885
-0.1794200837612152
0.39464298635721207
1.5109659433364868
-0.2980908043682575
-2.0530867278575897
-1.2687681317329407
0.035405371338129044
-2.364926338195801
-1.4313800036907196
-0.9817524701356888
0.41519173979759216
2.430413633584976
1.0350179187953472
0.6793833281844854
2.376022160053253
-0.5273039042949677
1.0158884525299072
-0.6832625865936279
-1.194543980062008
1.5012970566749573
0.1655978262424469
-0.13279107958078384
1.6028911024332047
-0.07377483323216438
-0.9187348335981369
0.16034872084856033
-1.435144454240799
1.5065669193863869
-1.1075629889965057
0.1992321591824293
-0.9623061269521713
-0.8041607737541199
-1.943233521655202
-0.7376188039779663
-1.2471091449260712
0.024718147236853838
SCALARS abs_error float 1
LOOKUP_TABLE default
0.04243965819478035
0.013496659696102142
0.007784413173794746
0.036290243268013
0.0034281983971595764
0.016577642410993576
0.06677057780325413
0.04245445132255554
0.01519709825515747
0.03163072466850281
0.027894973754882812
0.032173097133636475
0.0006298422813415527
0.013713598251342773
0.015046007931232452
0.042403802275657654
0.031999846920371056
0.022374749183654785
0.00015479326248168945
0.05916035175323486
0.015965893864631653
0.015274107456207275
0.027553647756576538
0.026520073413848877
0.04595891013741493
0.004093676805496216
0.017990916967391968
0.00036975741386413574
0.041751712560653687
0.026941001415252686
0.00585097074508667
0.0433926023542881
0.0017121732234954834
0.04753965139389038
0.03906145691871643
0.0003882944583892822
0.006627827882766724
0.011062733829021454
0.010563320014625788
0.002785004675388336
0.00021332502365112305
0.004929676651954651
0.026222556829452515
0.012414276599884033
0.02465587854385376
0.02197660505771637
0.01577826216816902
0.049397826194763184
0.013766944408416748
0.03508096933364868
0.10785570740699768
0.013912975788116455
0.030139237642288208
0.013243108987808228
0.016615048050880432
0.02988150715827942
0.02927403151988983
0.009914398193359375
0.004916012287139893
0.01621895655989647
0.01322232186794281
0.007500708103179932
0.08579151332378387
0.0015220344066619873
0.0007174909114837646
0.055426206439733505
0.02785947173833847
0.0030542314052581787
0.0368770956993103
0.032419353723526
0.011613346636295319
0.026894032955169678
0.05079318583011627