# vtk DataFile Version 3.0
Zombie mixed Neumann structured grid
ASCII
DATASET STRUCTURED_POINTS
DIMENSIONS 8 8 8
ORIGIN -0.22 -0.22 -0.22
SPACING 0.06285714285714286 0.06285714285714286 0.06285714285714286
POINT_DATA 512
SCALARS solution float 1
LOOKUP_TABLE default
-0.6599999666213989
-0.5971428751945496
-0.5342857241630554
-0.4714285731315613
-0.40857142210006714
-0.345714271068573
-0.28285714983940125
-0.2199999988079071
-0.5971428155899048
-0.5342857241630554
-0.4714285433292389
-0.4085714817047119
-0.345714271068573
-0.282857209444046
-0.2199999839067459
-0.15714284777641296
-0.5342856645584106
-0.4714285433292389
-0.40857142210006714
-0.345714271068573
-0.28285712003707886
-0.2199999839067459
-0.15714286267757416
-0.09428569674491882
-0.4714285731315613
-0.4085714817047119
-0.3457143306732178
-0.28285714983940125
-0.21999996900558472
-0.15714290738105774
-0.09428571164608002
-0.03142857551574707
-0.40857142210006714
-0.345714271068573
-0.28285714983940125
-0.21999996900558472
-0.15714284777641296
-0.09428571909666061
-0.031428635120391846
0.03142857551574707
-0.345714271068573
-0.282857209444046
-0.2199999988079071
-0.15714284777641296
-0.09428572654724121
-0.03142854571342468
0.03142854571342468
0.09428571164608002
-0.28285714983940125
-0.2199999988079071
-0.15714287757873535
-0.09428571164608002
-0.031428635120391846
0.03142854571342468
0.09428569674491882
0.15714286267757416
-0.2199999988079071
-0.15714286267757416
-0.09428571164608002
-0.03142857551574707
0.03142857551574707
0.09428571164608002
0.15714286267757416
0.2199999988079071
-0.5971428155899048
-0.5342857241630554
-0.4714285433292389
-0.4085714817047119
-0.345714271068573
-0.282857209444046
-0.2199999839067459
-0.15714284777641296
-0.5342857241630554
-0.4783899188041687
-0.40735140442848206
-0.3435228765010834
-0.27678385376930237
-0.22735793888568878
-0.1620994508266449
-0.09428569674491882
-0.4714285433292389
-0.4111829400062561
-0.33763420581817627
-0.2846229374408722
-0.22122697532176971
-0.18002957105636597
-0.07823430746793747
-0.03142854571342468
-0.4085714817047119
-0.35733556747436523
-0.29242539405822754
-0.23264913260936737
-0.16440850496292114
-0.07847771793603897
-0.03725958988070488
0.031428635120391846
-0.345714271068573
-0.2865919768810272
-0.2510952353477478
-0.14983633160591125
-0.08969681710004807
-0.04895520955324173
0.024443456903100014
0.09428571164608002
-0.282857209444046
-0.21732454001903534
-0.17653492093086243
-0.09535231441259384
-0.04511678218841553
0.01773977093398571
0.08887727558612823
0.15714287757873535
-0.2199999988079071
-0.16163358092308044
-0.09737035632133484
-0.051788151264190674
0.03229836747050285
0.10008170455694199
0.15283235907554626
0.2199999988079071
-0.15714286267757416
-0.09428569674491882
-0.03142854571342468
0.031428635120391846
0.09428571164608002
0.15714287757873535
0.2199999988079071
0.28285714983940125
-0.5342856645584106
-0.4714285433292389
-0.40857142210006714
-0.345714271068573
-0.28285712003707886
-0.2199999839067459
-0.15714286267757416
-0.09428569674491882
-0.4714285433292389
-0.41656097769737244
-0.34308645129203796
-0.2966642677783966
-0.2192050665616989
-0.1412460058927536
-0.08903686702251434
-0.03142854571342468
-0.40857142210006714
-0.34786155819892883
-0.2805445194244385
-0.2334628850221634
-0.17736899852752686
-0.09112507849931717
-0.04736755043268204
0.03142854571342468
-0.3457143008708954
-0.28967973589897156
-0.2219935804605484
-0.1938256174325943
-0.06795073300600052
-0.017485851421952248
0.018555937334895134
0.09428572654724121
-0.28285714983940125
-0.23199597001075745
-0.18494866788387299
-0.1379721760749817
-0.06509819626808167
0.010873551480472088
0.07493213564157486
0.15714289247989655
-0.2199999988079071
-0.1599297821521759
-0.10182023048400879
-0.05724751204252243
0.019152866676449776
0.07809553295373917
0.1492936760187149
0.2199999988079071
-0.15714287757873535
-0.10201382637023926
-0.031006118282675743
0.03186826780438423
0.07460211217403412
0.1510189026594162
0.21706172823905945
0.282857209444046
-0.09428571164608002
-0.03142854571342468
0.03142854571342468
0.09428572654724121
0.15714284777641296
0.2199999988079071
0.282857209444046
0.345714271068573
-0.4714285731315613
-0.4085714817047119
-0.345714271068573
-0.28285714983940125
-0.21999996900558472
-0.15714284777641296
-0.09428571164608002
-0.03142857551574707
-0.4085714817047119
-0.34254372119903564
-0.28611594438552856
-0.23909205198287964
-0.17186836898326874
-0.1027640551328659
-0.0479460172355175
0.031428635120391846
-0.3457143008708954
-0.2783018946647644
-0.22212693095207214
-0.15187717974185944
-0.10332123935222626
-0.013492203317582607
0.027612922713160515
0.09428572654724121
-0.28285714983940125
-0.22316321730613708
-0.17094607651233673
-0.12828154861927032
-0.06981804966926575
0.03853170573711395
0.0927366390824318
0.15714284777641296
-0.21999996900558472
-0.14615865051746368
-0.11725013703107834
-0.06287872046232224
-0.009350096806883812
0.08784923702478409
0.1542687863111496
0.21999996900558472
-0.15714289247989655
-0.0900958850979805
-0.05098623409867287
-0.028476346284151077
0.038915976881980896
0.1336560845375061
0.21761144697666168
0.28285714983940125
-0.09428571164608002
-0.04132704809308052
-0.014184128493070602
0.03215349465608597
0.12873460352420807
0.2145034670829773
0.2852596044540405
0.345714271068573
-0.03142857551574707
0.031428635120391846
0.09428571909666061
0.15714284777641296
0.21999996900558472
0.28285714983940125
0.345714271068573
0.40857142210006714
-0.40857142210006714
-0.345714271068573
-0.28285714983940125
-0.21999996900558472
-0.15714284777641296
-0.09428572654724121
-0.031428635120391846
0.03142857551574707
-0.345714271068573
-0.28562116622924805
-0.21166352927684784
-0.16300639510154724
-0.10834461450576782
-0.03377053514122963
0.04014359787106514
0.09428571164608002
-0.28285714983940125
-0.2033626139163971
-0.1785583794116974
-0.08773437887430191
-0.03694548457860947
0.019933046773076057
0.09357969462871552
0.15714284777641296
-0.21999996900558472
-0.1627402901649475
-0.10419487953186035
-0.06540419161319733
0.002773092593997717
0.07714493572711945
0.1349128931760788
0.21999996900558472
-0.15714284777641296
-0.1355305314064026
-0.036372531205415726
-0.023175984621047974
0.01062717940658331
0.1364373117685318
0.21901457011699677
0.28285714983940125
-0.09428572654724121
-0.05931904539465904
-0.025812117382884026
0.0
0.0
0.22222568094730377
0.2582566738128662
0.3457143008708954
-0.031428635120391846
0.03733525797724724
0.05534910410642624
0.1203872337937355
0.18370018899440765
0.2686655521392822
0.34283456206321716
0.4085714817047119
0.03142857551574707
0.09428571164608002
0.15714290738105774
0.21999996900558472
0.28285714983940125
0.3457143306732178
0.4085714817047119
0.4714285731315613
-0.345714271068573
-0.282857209444046
-0.2199999988079071
-0.15714289247989655
-0.09428572654724121
-0.03142854571342468
0.03142854571342468
0.09428571164608002
-0.282857209444046
-0.2327573448419571
-0.13732042908668518
-0.09747054427862167
-0.014149462804198265
0.022322233766317368
0.09176777303218842
0.15714287757873535
-0.2199999988079071
-0.13446302711963654
-0.10787398368120193
-0.03181275725364685
0.0012239691568538547
0.08243882656097412
0.1509762555360794
0.2199999988079071
-0.15714284777641296
-0.12012717872858047
-0.041560620069503784
0.02637265995144844
0.09741081297397614
0.14175629615783691
0.226313516497612
0.28285714983940125
-0.09428572654724121
-0.017174018546938896
0.0081016318872571
0.06756862998008728
0.13170240819454193
0.20005030930042267
0.28736913204193115
0.3457143008708954
-0.03142854571342468
0.0217483788728714
0.06682007759809494
0.11046045273542404
0.20174521207809448
0.2891981303691864
0.32816722989082336
0.40857142210006714
0.03142854571342468
0.08951248228549957
0.1515776813030243
0.2038421779870987
0.26007533073425293
0.32782092690467834
0.3964000642299652
0.4714285433292389
0.09428569674491882
0.15714286267757416
0.2199999839067459
0.28285712003707886
0.345714271068573
0.40857142210006714
0.4714285433292389
0.5342856645584106
-0.28285714983940125
-0.2199999988079071
-0.15714287757873535
-0.09428571164608002
-0.031428635120391846
0.03142854571342468
0.09428569674491882
0.15714286267757416
-0.2199999988079071
-0.1610892415046692
-0.09531346708536148
-0.03984183073043823
0.03986906632781029
0.09304504096508026
0.15101148188114166
0.2199999988079071
-0.15714287757873535
-0.09670673310756683
-0.036087580025196075
0.022718211635947227
0.10765852779150009
0.15161442756652832
0.21362754702568054
0.282857209444046
-0.09428571164608002
-0.04780522361397743
0.02066461741924286
0.08578962087631226
0.1656714379787445
0.2232244312763214
0.2759963572025299
0.345714271068573
-0.031428635120391846
0.013317224569618702
0.08610750734806061
0.15903685986995697
0.22889168560504913
0.2857150435447693
0.3447110652923584
0.4085714817047119
0.03142854571342468
0.07830776274204254
0.14132368564605713
0.21417415142059326
0.27481845021247864
0.3625708818435669
0.4200817346572876
0.4714285433292389
0.09428569674491882
0.1481107771396637
0.20514120161533356
0.27691856026649475
0.3433501422405243
0.41350048780441284
0.47354280948638916
0.5342857241630554
0.15714284777641296
0.2199999839067459
0.282857209444046
0.345714271068573
0.4085714817047119
0.4714285433292389
0.5342857241630554
0.5971428155899048
-0.2199999988079071
-0.15714286267757416
-0.09428571164608002
-0.03142857551574707
0.03142857551574707
0.09428571164608002
0.15714286267757416
0.2199999988079071
-0.15714286267757416
-0.09428569674491882
-0.03142854571342468
0.031428635120391846
0.09428571164608002
0.15714287757873535
0.2199999988079071
0.28285714983940125
-0.09428571164608002
-0.03142854571342468
0.03142854571342468
0.09428572654724121
0.15714289247989655
0.2199999988079071
0.282857209444046
0.345714271068573
-0.03142857551574707
0.031428635120391846
0.09428572654724121
0.15714284777641296
0.21999996900558472
0.28285714983940125
0.345714271068573
0.40857142210006714
0.03142857551574707
0.09428571164608002
0.15714284777641296
0.21999996900558472
0.28285714983940125
0.345714271068573
0.4085714817047119
0.4714285731315613
0.09428569674491882
0.15714286267757416
0.2199999839067459
0.28285712003707886
0.345714271068573
0.40857142210006714
0.4714285433292389
0.5342856645584106
0.15714284777641296
0.2199999839067459
0.282857209444046
0.345714271068573
0.4085714817047119
0.4714285433292389
0.5342857241630554
0.5971428155899048
0.2199999988079071
0.28285714983940125
0.345714271068573
0.40857142210006714
0.4714285731315613
0.5342857241630554
0.5971428751945496
0.6599999666213989
SCALARS exact float 1
LOOKUP_TABLE default
-0.6599999964237213
-0.5971428602933884
-0.5342857092618942
-0.471428569406271
-0.40857142582535744
-0.3457142859697342
-0.28285713493824005
-0.2199999988079071
-0.5971428602933884
-0.5342857241630554
-0.4714285731315613
-0.40857143327593803
-0.3457142896950245
-0.28285714983940125
-0.2199999988079071
-0.15714286267757416
-0.5342857092618942
-0.4714285731315613
-0.40857142210006714
-0.3457142822444439
-0.28285713866353035
-0.2199999988079071
-0.15714284777641296
-0.09428571164608002
-0.471428569406271
-0.40857143327593803
-0.3457142822444439
-0.28285714238882065
-0.2199999988079071
-0.15714285895228386
-0.09428570792078972
-0.03142857179045677
-0.40857142582535744
-0.3457142896950245
-0.28285713866353035
-0.2199999988079071
-0.15714285522699356
-0.09428571537137032
-0.031428564339876175
0.03142857179045677
-0.3457142859697342
-0.28285714983940125
-0.2199999988079071
-0.15714285895228386
-0.09428571537137032
-0.03142857551574707
0.03142857551574707
0.09428571164608002
-0.28285713493824005
-0.2199999988079071
-0.15714284777641296
-0.09428570792078972
-0.031428564339876175
0.03142857551574707
0.09428572654724121
0.15714286267757416
-0.2199999988079071
-0.15714286267757416
-0.09428571164608002
-0.03142857179045677
0.03142857179045677
0.09428571164608002
0.15714286267757416
0.2199999988079071
-0.5971428602933884
-0.5342857241630554
-0.4714285731315613
-0.40857143327593803
-0.3457142896950245
-0.28285714983940125
-0.2199999988079071
-0.15714286267757416
-0.5342857241630554
-0.4714285880327225
-0.40857143700122833
-0.3457142971456051
-0.28285715356469154
-0.2200000137090683
-0.15714286267757416
-0.09428572654724121
-0.4714285731315613
-0.40857143700122833
-0.3457142859697342
-0.28285714611411095
-0.2200000025331974
-0.15714286267757416
-0.09428571164608002
-0.03142857551574707
-0.40857143327593803
-0.3457142971456051
-0.28285714611411095
-0.2200000062584877
-0.15714286267757416
-0.09428572282195091
-0.03142857179045677
0.031428564339876175
-0.3457142896950245
-0.28285715356469154
-0.2200000025331974
-0.15714286267757416
-0.09428571909666061
-0.03142857924103737
0.03142857179045677
0.09428570792078972
-0.28285714983940125
-0.2200000137090683
-0.15714286267757416
-0.09428572282195091
-0.03142857924103737
0.031428560614585876
0.09428571164608002
0.15714284777641296
-0.2199999988079071
-0.15714286267757416
-0.09428571164608002
-0.03142857179045677
0.03142857179045677
0.09428571164608002
0.15714286267757416
0.2199999988079071
-0.15714286267757416
-0.09428572654724121
-0.03142857551574707
0.031428564339876175
0.09428570792078972
0.15714284777641296
0.2199999988079071
0.28285713493824005
-0.5342857092618942
-0.4714285731315613
-0.40857142210006714
-0.3457142822444439
-0.28285713866353035
-0.2199999988079071
-0.15714284777641296
-0.09428571164608002
-0.4714285731315613
-0.40857143700122833
-0.3457142859697342
-0.28285714611411095
-0.2200000025331974
-0.15714286267757416
-0.09428571164608002
-0.03142857551574707
-0.40857142210006714
-0.3457142859697342
-0.28285713493824005
-0.2199999950826168
-0.15714285150170326
-0.09428571164608002
-0.031428560614585876
0.03142857551574707
-0.3457142822444439
-0.28285714611411095
-0.2199999950826168
-0.15714285522699356
-0.09428571164608002
-0.03142857179045677
0.03142857924103737
0.09428571537137032
-0.28285713866353035
-0.2200000025331974
-0.15714285150170326
-0.09428571164608002
-0.03142856806516647
0.03142857179045677
0.09428572282195091
0.15714285895228386
-0.2199999988079071
-0.15714286267757416
-0.09428571164608002
-0.03142857179045677
0.03142857179045677
0.09428571164608002
0.15714286267757416
0.2199999988079071
-0.15714284777641296
-0.09428571164608002
-0.031428560614585876
0.03142857924103737
0.09428572282195091
0.15714286267757416
0.2200000137090683
0.28285714983940125
-0.09428571164608002
-0.03142857551574707
0.03142857551574707
0.09428571537137032
0.15714285895228386
0.2199999988079071
0.28285714983940125
0.3457142859697342
-0.471428569406271
-0.40857143327593803
-0.3457142822444439
-0.28285714238882065
-0.2199999988079071
-0.15714285895228386
-0.09428570792078972
-0.03142857179045677
-0.40857143327593803
-0.3457142971456051
-0.28285714611411095
-0.2200000062584877
-0.15714286267757416
-0.09428572282195091
-0.03142857179045677
0.031428564339876175
-0.3457142822444439
-0.28285714611411095
-0.2199999950826168
-0.15714285522699356
-0.09428571164608002
-0.03142857179045677
0.03142857924103737
0.09428571537137032
-0.28285714238882065
-0.2200000062584877
-0.15714285522699356
-0.09428571537137032
-0.03142857179045677
0.03142856806516647
0.09428571909666061
0.15714285522699356
-0.2199999988079071
-0.15714286267757416
-0.09428571164608002
-0.03142857179045677
0.03142857179045677
0.09428571164608002
0.15714286267757416
0.2199999988079071
-0.15714285895228386
-0.09428572282195091
-0.03142857179045677
0.03142856806516647
0.09428571164608002
0.15714285150170326
0.2200000025331974
0.28285713866353035
-0.09428570792078972
-0.03142857179045677
0.03142857924103737
0.09428571909666061
0.15714286267757416
0.2200000025331974
0.28285715356469154
0.3457142896950245
-0.03142857179045677
0.031428564339876175
0.09428571537137032
0.15714285522699356
0.2199999988079071
0.28285713866353035
0.3457142896950245
0.40857142582535744
-0.40857142582535744
-0.3457142896950245
-0.28285713866353035
-0.2199999988079071
-0.15714285522699356
-0.09428571537137032
-0.031428564339876175
0.03142857179045677
-0.3457142896950245
-0.28285715356469154
-0.2200000025331974
-0.15714286267757416
-0.09428571909666061
-0.03142857924103737
0.03142857179045677
0.09428570792078972
-0.28285713866353035
-0.2200000025331974
-0.15714285150170326
-0.09428571164608002
-0.03142856806516647
0.03142857179045677
0.09428572282195091
0.15714285895228386
-0.2199999988079071
-0.15714286267757416
-0.09428571164608002
-0.03142857179045677
0.03142857179045677
0.09428571164608002
0.15714286267757416
0.2199999988079071
-0.15714285522699356
-0.09428571909666061
-0.03142856806516647
0.03142857179045677
0.09428571537137032
0.15714285522699356
0.2200000062584877
0.28285714238882065
-0.09428571537137032
-0.03142857924103737
0.03142857179045677
0.09428571164608002
0.15714285522699356
0.2199999950826168
0.28285714611411095
0.3457142822444439
-0.031428564339876175
0.03142857179045677
0.09428572282195091
0.15714286267757416
0.2200000062584877
0.28285714611411095
0.3457142971456051
0.40857143327593803
0.03142857179045677
0.09428570792078972
0.15714285895228386
0.2199999988079071
0.28285714238882065
0.3457142822444439
0.40857143327593803
0.471428569406271
-0.3457142859697342
-0.28285714983940125
-0.2199999988079071
-0.15714285895228386
-0.09428571537137032
-0.03142857551574707
0.03142857551574707
0.09428571164608002
-0.28285714983940125
-0.2200000137090683
-0.15714286267757416
-0.09428572282195091
-0.03142857924103737
0.031428560614585876
0.09428571164608002
0.15714284777641296
-0.2199999988079071
-0.15714286267757416
-0.09428571164608002
-0.03142857179045677
0.03142857179045677
0.09428571164608002
0.15714286267757416
0.2199999988079071
-0.15714285895228386
-0.09428572282195091
-0.03142857179045677
0.03142856806516647
0.09428571164608002
0.15714285150170326
0.2200000025331974
0.28285713866353035
-0.09428571537137032
-0.03142857924103737
0.03142857179045677
0.09428571164608002
0.15714285522699356
0.2199999950826168
0.28285714611411095
0.3457142822444439
-0.03142857551574707
0.031428560614585876
0.09428571164608002
0.15714285150170326
0.2199999950826168
0.28285713493824005
0.3457142859697342
0.40857142210006714
0.03142857551574707
0.09428571164608002
0.15714286267757416
0.2200000025331974
0.28285714611411095
0.3457142859697342
0.40857143700122833
0.4714285731315613
0.09428571164608002
0.15714284777641296
0.2199999988079071
0.28285713866353035
0.3457142822444439
0.40857142210006714
0.4714285731315613
0.5342857092618942
-0.28285713493824005
-0.2199999988079071
-0.15714284777641296
-0.09428570792078972
-0.031428564339876175
0.03142857551574707
0.09428572654724121
0.15714286267757416
-0.2199999988079071
-0.15714286267757416
-0.09428571164608002
-0.03142857179045677
0.03142857179045677
0.09428571164608002
0.15714286267757416
0.2199999988079071
-0.15714284777641296
-0.09428571164608002
-0.031428560614585876
0.03142857924103737
0.09428572282195091
0.15714286267757416
0.2200000137090683
0.28285714983940125
-0.09428570792078972
-0.03142857179045677
0.03142857924103737
0.09428571909666061
0.15714286267757416
0.2200000025331974
0.28285715356469154
0.3457142896950245
-0.031428564339876175
0.03142857179045677
0.09428572282195091
0.15714286267757416
0.2200000062584877
0.28285714611411095
0.3457142971456051
0.40857143327593803
0.03142857551574707
0.09428571164608002
0.15714286267757416
0.2200000025331974
0.28285714611411095
0.3457142859697342
0.40857143700122833
0.4714285731315613
0.09428572654724121
0.15714286267757416
0.2200000137090683
0.28285715356469154
0.3457142971456051
0.40857143700122833
0.4714285880327225
0.5342857241630554
0.15714286267757416
0.2199999988079071
0.28285714983940125
0.3457142896950245
0.40857143327593803
0.4714285731315613
0.5342857241630554
0.5971428602933884
-0.2199999988079071
-0.15714286267757416
-0.09428571164608002
-0.03142857179045677
0.03142857179045677
0.09428571164608002
0.15714286267757416
0.2199999988079071
-0.15714286267757416
-0.09428572654724121
-0.03142857551574707
0.031428564339876175
0.09428570792078972
0.15714284777641296
0.2199999988079071
0.28285713493824005
-0.09428571164608002
-0.03142857551574707
0.03142857551574707
0.09428571537137032
0.15714285895228386
0.2199999988079071
0.28285714983940125
0.3457142859697342
-0.03142857179045677
0.031428564339876175
0.09428571537137032
0.15714285522699356
0.2199999988079071
0.28285713866353035
0.3457142896950245
0.40857142582535744
0.03142857179045677
0.09428570792078972
0.15714285895228386
0.2199999988079071
0.28285714238882065
0.3457142822444439
0.40857143327593803
0.471428569406271
0.09428571164608002
0.15714284777641296
0.2199999988079071
0.28285713866353035
0.3457142822444439
0.40857142210006714
0.4714285731315613
0.5342857092618942
0.15714286267757416
0.2199999988079071
0.28285714983940125
0.3457142896950245
0.40857143327593803
0.4714285731315613
0.5342857241630554
0.5971428602933884
0.2199999988079071
0.28285713493824005
0.3457142859697342
0.40857142582535744
0.471428569406271
0.5342857092618942
0.5971428602933884
0.6599999964237213
SCALARS abs_error float 1
LOOKUP_TABLE default
2.9802322387695312e-08
1.4901161193847656e-08
1.4901161193847656e-08
3.725290298461914e-09
3.725290298461914e-09
1.4901161193847656e-08
1.4901161193847656e-08
0.0
4.470348358154297e-08
0.0
2.9802322387695312e-08
4.842877388000488e-08
1.862645149230957e-08
5.960464477539063e-08
1.4901161193847656e-08
1.4901161193847656e-08
4.470348358154297e-08
2.9802322387695312e-08
0.0
1.1175870895385742e-08
1.862645149230957e-08
1.4901161193847656e-08
1.4901161193847656e-08
1.4901161193847656e-08
3.725290298461914e-09
4.842877388000488e-08
4.842877388000488e-08
7.450580596923828e-09
2.9802322387695312e-08
4.842877388000488e-08
3.725290298461914e-09
3.725290298461914e-09
3.725290298461914e-09
1.862645149230957e-08
1.1175870895385742e-08
2.9802322387695312e-08
7.450580596923828e-09
3.725290298461914e-09
7.078051567077637e-08
3.725290298461914e-09
1.4901161193847656e-08
5.960464477539063e-08
0.0
1.1175870895385742e-08
1.1175870895385742e-08
2.9802322387695312e-08
2.9802322387695312e-08
0.0
1.4901161193847656e-08
0.0
2.9802322387695312e-08
3.725290298461914e-09
7.078051567077637e-08
2.9802322387695312e-08
2.9802322387695312e-08
0.0
0.0
0.0
0.0
3.725290298461914e-09
3.725290298461914e-09
0.0
0.0
0.0
4.470348358154297e-08
0.0
2.9802322387695312e-08
4.842877388000488e-08
1.862645149230957e-08
5.960464477539063e-08
1.4901161193847656e-08
1.4901161193847656e-08
0.0
0.006961330771446228
0.0012200325727462769
0.0021914206445217133
0.006073299795389175
0.007357925176620483
0.00495658814907074
2.9802322387695312e-08
2.9802322387695312e-08
0.002611503005027771
0.008080080151557922
0.0017657913267612457
0.0012269727885723114
0.02288670837879181
0.016051404178142548
2.9802322387695312e-08
4.842877388000488e-08
0.011621270328760147
0.009568247944116592
0.01264912635087967
0.007265642285346985
0.01580800488591194
0.005831018090248108
7.078051567077637e-08
1.862645149230957e-08
0.003734823316335678
0.0310952328145504
0.007306531071662903
0.004588901996612549
0.01752663031220436
0.006985114887356758
3.725290298461914e-09
5.960464477539063e-08
0.002675473690032959
0.01939205825328827
0.001066591590642929
0.013688202947378159
0.013688789680600166
0.005408436059951782
2.9802322387695312e-08
0.0
0.004490718245506287
0.0030846446752548218
0.020359579473733902
0.0008697956800460815
0.005795992910861969
0.004310503602027893
0.0
0.0
2.9802322387695312e-08
2.9802322387695312e-08
7.078051567077637e-08
3.725290298461914e-09
2.9802322387695312e-08
0.0
1.4901161193847656e-08
4.470348358154297e-08
2.9802322387695312e-08
0.0
1.1175870895385742e-08
1.862645149230957e-08
1.4901161193847656e-08
1.4901161193847656e-08
1.4901161193847656e-08
2.9802322387695312e-08
0.007989540696144104
0.002627834677696228
0.01380712166428566
0.0007949359714984894
0.015896856784820557
0.005248844623565674
2.9802322387695312e-08
0.0
0.002147272229194641
0.0023126155138015747
0.013462889939546585
0.020226147025823593
0.003160633146762848
0.01593898981809616
2.9802322387695312e-08
1.862645149230957e-08
0.006822589784860611
0.001993585377931595
0.03668276220560074
0.0263349786400795
0.013942720368504524
0.012872641906142235
1.1175870895385742e-08
1.1175870895385742e-08
0.011995967477560043
0.027805816382169724
0.04368646442890167
0.03366962820291519
0.020555020309984684
0.019353587180376053
3.3527612686157227e-08
0.0
0.0027869194746017456
0.007534518837928772
0.02581894025206566
0.012275705114006996
0.01619017869234085
0.007849186658859253
0.0
2.9802322387695312e-08
0.007728114724159241
0.00042244233191013336
0.0004396885633468628
0.019683610647916794
0.006123960018157959
0.00293828547000885
5.960464477539063e-08
0.0
2.9802322387695312e-08
2.9802322387695312e-08
1.1175870895385742e-08
1.1175870895385742e-08
0.0
5.960464477539063e-08
1.4901161193847656e-08
3.725290298461914e-09
4.842877388000488e-08
1.1175870895385742e-08
7.450580596923828e-09
2.9802322387695312e-08
1.1175870895385742e-08
3.725290298461914e-09
3.725290298461914e-09
4.842877388000488e-08
0.0031705759465694427
0.003258798271417618
0.019092045724391937
0.01472550630569458
0.008478332310914993
0.01651744544506073
7.078051567077637e-08
1.862645149230957e-08
0.004555251449346542
0.0021269358694553375
0.005265675485134125
0.00903552770614624
0.017936368472874165
0.003815656527876854
1.1175870895385742e-08
7.450580596923828e-09
0.0031632110476493835
0.01380322128534317
0.03399583324790001
0.038389477878808975
0.007103137671947479
0.0015490800142288208
7.450580596923828e-09
2.9802322387695312e-08
0.010984212160110474
0.02296442538499832
0.03145014867186546
0.040778668597340584
0.006436474621295929
0.0028740763664245605
2.9802322387695312e-08
3.3527612686157227e-08
0.004189837723970413
0.019557662308216095
0.05990491434931755
0.05536973476409912
0.02348676696419716
0.002388555556535721
1.1175870895385742e-08
3.725290298461914e-09
0.009898476302623749
0.04561270773410797
0.062132224440574646
0.02840825915336609
0.005496535450220108
0.0024024508893489838
1.862645149230957e-08
3.725290298461914e-09
7.078051567077637e-08
3.725290298461914e-09
7.450580596923828e-09
2.9802322387695312e-08
1.1175870895385742e-08
1.862645149230957e-08
3.725290298461914e-09
3.725290298461914e-09
1.862645149230957e-08
1.1175870895385742e-08
2.9802322387695312e-08
7.450580596923828e-09
1.1175870895385742e-08
7.078051567077637e-08
3.725290298461914e-09
1.862645149230957e-08
0.0027640126645565033
0.008336473256349564
0.0058635324239730835
0.014058895409107208
0.0023419559001922607
0.008715026080608368
3.725290298461914e-09
1.1175870895385742e-08
0.016637388616800308
0.021415527909994125
0.006551332771778107
0.005516916513442993
0.011495525017380714
0.0007060281932353973
1.1175870895385742e-08
2.9802322387695312e-08
0.005597427487373352
0.009909167885780334
0.033975619822740555
0.028655479196459055
0.01714077591896057
0.02222996950149536
2.9802322387695312e-08
7.450580596923828e-09
0.041244812309741974
0.004943963140249252
0.054604556411504745
0.083658535964787
0.02070554345846176
0.0009854361414909363
7.450580596923828e-09
1.1175870895385742e-08
0.027890466153621674
0.0572406891733408
0.0
0.0
0.002225685864686966
0.024600472301244736
1.862645149230957e-08
7.078051567077637e-08
0.005906686186790466
0.03893661871552467
0.036755628883838654
0.03629981726408005
0.01419159397482872
0.002879735082387924
4.842877388000488e-08
3.725290298461914e-09
3.725290298461914e-09
4.842877388000488e-08
2.9802322387695312e-08
7.450580596923828e-09
4.842877388000488e-08
4.842877388000488e-08
3.725290298461914e-09
1.4901161193847656e-08
5.960464477539063e-08
0.0
3.3527612686157227e-08
1.1175870895385742e-08
2.9802322387695312e-08
2.9802322387695312e-08
0.0
5.960464477539063e-08
0.012757331132888794
0.019822433590888977
0.003184821456670761
0.017279116436839104
0.009106326848268509
0.0025179386138916016
2.9802322387695312e-08
0.0
0.022679835557937622
0.013588272035121918
0.00038418546319007874
0.030204602633602917
0.011846885085105896
0.006166607141494751
0.0
1.1175870895385742e-08
0.025841455906629562
0.010132048279047012
0.005055908113718033
0.003125101327896118
0.015386555343866348
0.0063135139644145966
1.1175870895385742e-08
1.1175870895385742e-08
0.014254560694098473
0.023326939903199673
0.026717081665992737
0.02544044703245163
0.019949685782194138
0.004511985927820206
1.862645149230957e-08
2.9802322387695312e-08
0.009680181741714478
0.027465634047985077
0.04668239876627922
0.018254783004522324
0.00634099543094635
0.017547056078910828
0.0
2.9802322387695312e-08
0.004773229360580444
0.005565181374549866
0.01615782454609871
0.022781815379858017
0.017893359065055847
0.012171372771263123
2.9802322387695312e-08
1.4901161193847656e-08
1.4901161193847656e-08
1.4901161193847656e-08
1.862645149230957e-08
1.1175870895385742e-08
0.0
2.9802322387695312e-08
4.470348358154297e-08
1.4901161193847656e-08
0.0
2.9802322387695312e-08
3.725290298461914e-09
7.078051567077637e-08
2.9802322387695312e-08
2.9802322387695312e-08
0.0
0.0
0.003946378827095032
0.0010277554392814636
0.00841325893998146
0.008440494537353516
0.0012406706809997559
0.006131380796432495
0.0
2.9802322387695312e-08
0.0024210214614868164
0.004659019410610199
0.008710367605090141
0.013372804969549179
0.005528435111045837
0.006372466683387756
5.960464477539063e-08
3.725290298461914e-09
0.01637665182352066
0.01076396182179451
0.008496098220348358
0.008528575301170349
0.003224428743124008
0.006860796362161636
1.862645149230957e-08
7.078051567077637e-08
0.01811134722083807
0.008178215473890305
0.0018939971923828125
0.008891679346561432
0.0028578974306583405
0.0010032318532466888
4.842877388000488e-08
2.9802322387695312e-08
0.015977948904037476
0.01581917703151703
0.005825851112604141
0.008038695901632309
0.016856595873832703
0.011510297656059265
2.9802322387695312e-08
2.9802322387695312e-08
0.009032085537910461
0.014858812093734741
0.005938593298196793
0.0023641549050807953
0.004929050803184509
0.002114221453666687
0.0
1.4901161193847656e-08
1.4901161193847656e-08
5.960464477539063e-08
1.862645149230957e-08
4.842877388000488e-08