# vtk DataFile Version 3.0
WoSt boundary bias detector
ASCII
DATASET STRUCTURED_POINTS
DIMENSIONS 16 16 16
ORIGIN -1.1 -1.1 -1.1
SPACING 0.14666668 0.14666668 0.14666668
POINT_DATA 4096
SCALARS solution_epsilon float 1
LOOKUP_TABLE default
-3.3000002
-3.1533332
-3.0066667
-2.8600001
-2.7133334
-2.5666666
-2.4200001
-2.2733333
-2.1266665
-1.98
-1.8333334
-1.6866666
-1.54
-1.3933333
-1.2466666
-1.1
-3.1533332
-3.0066667
-2.8600001
-2.7133334
-2.5666666
-2.4200001
-2.2733335
-2.1266665
-1.98
-1.8333334
-1.6866667
-1.54
-1.3933333
-1.2466667
-1.0999999
-0.95333338
-3.0066667
-2.8600001
-2.7133334
-2.5666666
-2.4200001
-2.2733335
-2.1266665
-1.98
-1.8333333
-1.6866667
-1.54
-1.3933332
-1.2466667
-1.0999999
-0.9533332
-0.80666667
-2.8600001
-2.7133334
-2.5666666
-2.4200001
-2.2733333
-2.1266665
-1.98
-1.8333333
-1.6866666
-1.54
-1.3933333
-1.2466666
-1.0999999
-0.95333326
-0.80666649
-0.65999997
-2.7133334
-2.5666666
-2.4200001
-2.2733333
-2.1266665
-1.98
-1.8333333
-1.6866666
-1.54
-1.3933333
-1.2466667
-1.0999999
-0.95333326
-0.80666661
-0.65999985
-0.51333332
-2.5666666
-2.4200001
-2.2733335
-2.1266665
-1.98
-1.8333334
-1.6866667
-1.54
-1.3933333
-1.2466667
-1.1
-0.95333326
-0.80666661
-0.65999997
-0.5133332
-0.36666667
-2.4200001
-2.2733335
-2.1266665
-1.98
-1.8333333
-1.6866667
-1.54
-1.3933332
-1.2466667
-1.0999999
-0.95333332
-0.80666655
-0.65999991
-0.51333326
-0.3666665
-0.21999997
-2.2733333
-2.1266665
-1.98
-1.8333333
-1.6866666
-1.54
-1.3933332
-1.2466666
-1.0999999
-0.95333326
-0.80666661
-0.65999985
-0.5133332
-0.36666656
-0.21999979
-0.073333263
-2.1266665
-1.98
-1.8333333
-1.6866666
-1.54
-1.3933333
-1.2466667
-1.0999999
-0.95333326
-0.80666661
-0.65999997
-0.5133332
-0.36666656
-0.21999991
-0.073333144
0.073333383
-1.98
-1.8333334
-1.6866667
-1.54
-1.3933333
-1.2466667
-1.0999999
-0.95333326
-0.80666661
-0.65999997
-0.51333332
-0.36666656
-0.21999991
-0.073333263
0.073333502
0.22000003
-1.8333334
-1.6866667
-1.54
-1.3933333
-1.2466667
-1.1
-0.95333332
-0.80666661
-0.65999997
-0.51333332
-0.36666667
-0.21999991
-0.073333263
0.073333383
0.22000015
0.36666667
-1.6866666
-1.54
-1.3933332
-1.2466666
-1.0999999
-0.95333326
-0.80666655
-0.65999985
-0.5133332
-0.36666656
-0.21999991
-0.073333144
0.073333502
0.22000015
0.36666691
0.51333344
-1.54
-1.3933333
-1.2466667
-1.0999999
-0.95333326
-0.80666661
-0.65999991
-0.5133332
-0.36666656
-0.21999991
-0.073333263
0.073333502
0.22000015
0.36666679
0.51333356
0.66000009
-1.3933333
-1.2466667
-1.0999999
-0.95333326
-0.80666661
-0.65999997
-0.51333326
-0.36666656
-0.21999991
-0.073333263
0.073333383
0.22000015
0.36666679
0.51333344
0.66000021
0.80666673
-1.2466666
-1.0999999
-0.9533332
-0.80666649
-0.65999985
-0.5133332
-0.3666665
-0.21999979
-0.073333144
0.073333502
0.22000015
0.36666691
0.51333356
0.66000021
0.80666697
0.9533335
-1.1
-0.95333338
-0.80666667
-0.65999997
-0.51333332
-0.36666667
-0.21999997
-0.073333263
0.073333383
0.22000003
0.36666667
0.51333344
0.66000009
0.80666673
0.9533335
1.1
-3.1533334
-3.0066667
-2.8600001
-2.7133334
-2.5666666
-2.4200001
-2.2733333
-2.1266665
-1.98
-1.8333334
-1.6866667
-1.54
-1.3933333
-1.2466667
-1.0999999
-0.95333338
-3.0066667
-2.864198
-2.7086055
-2.5976989
-2.3873434
-2.2551892
-2.1032476
-1.9970934
-1.8604522
-1.72091
-1.4903803
-1.4577281
-1.2794974
-1.052168
-0.97987479
-0.80666673
-2.8600001
-2.6924605
-2.6417484
-2.4437587
-2.3242862
-2.1831651
-1.9947144
-1.8787401
-1.6765311
-1.568671
-1.4413463
-1.2158824
-1.0791382
-0.94136602
-0.80109292
-0.66000003
-2.7133334
-2.6158724
-2.4607022
-2.2710333
-2.2196667
-2.0539157
-1.9055561
-1.6643274
-1.5841933
-1.4300022
-1.2360709
-1.1507393
-0.92051512
-0.8360551
-0.60826129
-0.51333332
-2.5666666
-2.4504302
-2.2370849
-2.1341765
-2.0554938
-1.9317765
-1.7759584
-1.6142007
-1.4679856
-1.2589082
-1.0699333
-0.87695122
-0.81164336
-0.77666497
-0.53901958
-0.36666667
-2.4200001
-2.3020308
-2.1460855
-2.0560868
-1.8764234
-1.8091426
-1.5758675
-1.3996744
-1.2583073
-1.1388922
-1.1375488
-0.95269054
-0.72839296
-0.54321128
-0.41601357
-0.22000003
-2.2733333
-2.1355996
-2.0105898
-1.9221501
-1.7130111
-1.7195153
-1.4272138
-1.4456252
-1.1162422
-1.0358541
-0.90884936
-0.66406977
-0.52807963
-0.30128571
-0.16945042
-0.073333323
-2.1266665
-1.994934
-1.865519
-1.6872241
-1.5470452
-1.505572
-1.4147083
-1.2813536
-1.1104225
-0.96917391
-0.7280708
-0.61884785
-0.32470688
-0.23482667
-0.038984258
0.073333383
-1.98
-1.9104459
-1.7147584
-1.5985441
-1.4618891
-1.424787
-1.2163086
-1.1261251
-0.84465128
-0.72657675
-0.48107335
-0.4350346
-0.22970158
-0.089705862
0.015890896
0.22000003
-1.8333334
-1.7390114
-1.5682281
-1.4359603
-1.2824947
-1.2143366
-1.0809339
-0.9187156
-0.65925986
-0.56611586
-0.37688497
-0.23975806
0.11534813
0.004919481
0.26658151
0.36666667
-1.6866667
-1.5438807
-1.456973
-1.2920085
-1.22886
-1.0568471
-0.93163127
-0.78779918
-0.53866369
-0.51924473
-0.28353769
-0.060082953
0.037229005
0.1786966
0.37160605
0.51333332
-1.54
-1.3906244
-1.30435
-1.1745181
-0.92737746
-0.91009086
-0.75554186
-0.59151232
-0.4450877
-0.25067684
-0.040089071
0.032721426
0.15581635
0.43443942
0.51197737
0.66000009
-1.3933333
-1.3432151
-1.1673318
-1.0080423
-0.84575552
-0.74099129
-0.52543467
-0.45825282
-0.25959533
-0.13892435
0.092783548
0.15629549
0.37136948
0.55049384
0.60802549
0.80666673
-1.2466667
-1.0668489
-0.93323261
-0.82276756
-0.69828612
-0.54923868
-0.45318809
-0.29696479
-0.10716779
-0.0093759093
0.19728062
0.3372103
0.44964638
0.71613711
0.83153331
0.95333338
-1.0999999
-0.96501696
-0.74164408
-0.64265192
-0.47379404
-0.37982044
-0.29541808
-0.13864839
0.1273718
0.1583201
0.32383791
0.52531135
0.63380533
0.82485294
0.98838478
1.1000001
-0.95333338
-0.80666673
-0.66000003
-0.51333332
-0.36666667
-0.22000003
-0.073333323
0.073333383
0.22000003
0.36666667
0.51333332
0.66000009
0.80666673
0.95333338
1.1000001
1.2466667
-3.0066667
-2.8599999
-2.7133334
-2.5666666
-2.4200001
-2.2733333
-2.1266665
-1.98
-1.8333333
-1.6866667
-1.54
-1.3933332
-1.2466667
-1.0999999
-0.9533332
-0.80666667
-2.8599999
-2.7543805
-2.6381924
-2.3704708
-2.2952373
-2.1558313
-2.0250936
-1.9226695
-1.7037719
-1.5551529
-1.4784213
-1.3080477
-1.1143899
-1.0094664
-0.83911067
-0.66000003
-2.7133334
-2.6009135
-2.4779737
-2.3773365
-2.1965892
-1.9875623
-1.8820235
-1.730867
-1.6688594
-1.3453381
-1.2894073
-1.1505116
-0.98965985
-0.80170858
-0.71625453
-0.51333332
-2.5666666
-2.4618802
-2.3175597
-2.2071922
-1.9661367
-1.918386
-1.7352259
-1.6518421
-1.5001056
-1.368347
-1.1341817
-0.96033758
-0.75883794
-0.700041
-0.43807465
-0.36666662
-2.4200001
-2.3225026
-2.2133572
-2.1169827
-1.9928707
-1.8690668
-1.7421451
-1.6012123
-1.4103215
-1.2535011
-0.98523492
-0.81700575
-0.61347997
-0.49673557
-0.3644987
-0.21999997
-2.2733333
-2.1850448
-2.0622206
-1.8821152
-1.8277122
-1.7442902
-1.5705234
-1.3876657
-1.2655129
-1.0117271
-0.77608788
-0.62550092
-0.44058579
-0.3912904
-0.24500325
-0.073333323
-2.1266665
-1.9480509
-1.8867898
-1.832685
-1.7278235
-1.3696743
-1.4755559
-1.3188829
-1.1630766
-0.94505268
-0.65235662
-0.46095064
-0.55636144
-0.20450416
-0.066950426
0.073333383
-1.98
-1.8928717
-1.7497627
-1.6298486
-1.5686361
-1.4646211
-1.2297773
-1.193637
-1.0170885
-0.86946207
-0.56948978
-0.44000658
-0.23645683
-0.0083263274
0.052404728
0.22000009
-1.8333333
-1.671865
-1.5639262
-1.6221546
-1.3749459
-1.3774024
-1.2315682
-1.0008115
-0.91721278
-0.83591229
-0.44361526
-0.31299877
0.046447292
0.034080818
0.27791128
0.36666673
-1.6866667
-1.5293075
-1.4514896
-1.3794204
-1.3175752
-1.2248273
-1.1285956
-0.99155474
-0.75967675
-0.62678128
-0.14108501
-0.29246226
0.21528295
0.15663412
0.42283833
0.51333338
-1.54
-1.4029136
-1.2358224
-1.1828079
-1.0819889
-1.0622811
-0.80019903
-0.92437977
-0.49639291
-0.20482834
0.013493848
0.12258197
0.2199157
0.44471726
0.50045508
0.66000003
-1.3933332
-1.2600572
-1.1333407
-1.161446
-1.014998
-0.80999923
-0.60721195
-0.54354584
-0.26539046
-0.092170946
0.056847401
0.10149041
0.45895234
0.4925079
0.58771586
0.80666679
-1.2466667
-1.127862
-1.020679
-0.84920472
-0.67406809
-0.58616763
-0.42593598
-0.30984583
-0.11692282
0.053465217
0.081250191
0.49082211
0.49325022
0.72749197
0.80880791
0.95333344
-1.0999999
-0.92082411
-0.87351871
-0.67850304
-0.64885896
-0.38651097
-0.32012457
-0.17223307
-0.065009184
0.21594237
0.43703648
0.51712722
0.65259296
0.78582215
0.93696028
1.1000001
-0.9533332
-0.81070203
-0.56537312
-0.54088479
-0.35867512
-0.26829132
-0.10200778
0.081221186
0.30058756
0.37937889
0.50349033
0.68413609
0.82306623
0.96550363
1.0781624
1.2466669
-0.80666667
-0.66000003
-0.51333332
-0.36666662
-0.21999997
-0.073333323
0.073333383
0.22000009
0.36666673
0.51333338
0.66000003
0.80666679
0.95333344
1.1000001
1.2466669
1.3933334
-2.8600001
-2.7133331
-2.5666666
-2.4200001
-2.2733333
-2.1266665
-1.9799999
-1.8333333
-1.6866666
-1.54
-1.3933333
-1.2466666
-1.0999999
-0.95333326
-0.80666649
-0.65999997
-2.7133331
-2.5541382
-2.4536891
-2.2645814
-2.1276608
-1.9432635
-1.7582339
-1.7639041
-1.5784464
-1.4097883
-1.2890302
-1.1857047
-0.97788692
-0.85303706
-0.66320968
-0.51333332
-2.5666666
-2.4731514
-2.3378391
-2.2339809
-2.052285
-1.8327183
-1.7353714
-1.6498922
-1.5653259
-1.2470233
-1.0101409
-0.9214108
-0.89897722
-0.67982644
-0.53937823
-0.36666662
-2.4200001
-2.2125053
-2.1922064
-1.9117514
-1.8751495
-1.8738483
-1.6516327
-1.545774
-1.3807126
-1.2578728
-1.0725943
-0.93494666
-0.72861809
-0.56133282
-0.3886936
-0.21999991
-2.2733333
-2.2020328
-2.0005546
-1.8980283
-1.6267033
-1.8297579
-1.5854546
-1.522668
-1.1352718
-1.1169416
-0.86517817
-0.73191816
-0.52894735
-0.4253113
-0.19421591
-0.073333263
-2.1266665
-2.0553317
-1.8808292
-1.8181334
-1.7068927
-1.750687
-1.6125333
-1.3300362
-1.1772583
-1.1349272
-0.80821717
-0.53871053
-0.44173467
-0.29578564
-0.10935685
0.073333383
-1.9799999
-1.916586
-1.8714687
-1.6271411
-1.6381708
-1.5009466
-1.4059045
-1.3076199
-1.063154
-0.76534575
-0.66613692
-0.46564221
-0.26749828
-0.081953175
0.023963075
0.22000009
-1.8333333
-1.7939416
-1.5967494
-1.461284
-1.5440084
-1.5087482
-1.2881572
-1.0813586
-1.0043461
-0.67969638
-0.33256719
-0.31242031
-0.11548134
0.13315775
0.19594592
0.36666679
-1.6866666
-1.623996
-1.4161696
-1.4007343
-1.3892242
-1.4579259
-1.2214078
-1.4149653
-0.94170171
-0.69459808
-0.19257596
-0.023153862
0.14675187
0.19767059
0.35252726
0.51333344
-1.54
-1.4527136
-1.4273877
-1.1860634
-1.1432953
-1.3078768
-1.1436673
-1.0816308
-0.86915708
-0.5470627
-0.23111871
0.10474842
0.28222558
0.28076205
0.56513941
0.66000009
-1.3933333
-1.2598853
-1.1454023
-1.2979119
-0.97635549
-0.79098922
-1.0614654
-0.71602398
-0.47761571
-0.086149387
0.12522924
0.26089281
0.34482753
0.55055785
0.73822504
0.80666673
-1.2466666
-1.2281919
-1.0099404
-0.9050228
-0.90994769
-0.72294241
-0.6969865
-0.41436741
-0.15635017
0.12106794
0.30743814
0.5132485
0.61787105
0.72983789
0.83816838
0.9533335
-1.0999999
-1.0421143
-0.88925284
-0.77654469
-0.62412
-0.65250367
-0.49728292
-0.19759038
-0.066578649
0.24700031
0.38417622
0.52818418
0.57672346
0.83339626
0.93803805
1.1000001
-0.95333326
-0.825571
-0.67550868
-0.6325168
-0.56193984
-0.24794851
-0.2488147
-0.011746601
0.20993544
0.39033493
0.5914169
0.78116786
0.89215857
1.1047677
1.0962262
1.2466668
-0.80666649
-0.69709128
-0.57633913
-0.44718793
-0.37716267
-0.092259116
-0.0054663727
0.22207107
0.32023418
0.42819637
0.74536753
0.83504039
0.92414856
1.1085495
1.2126628
1.3933336
-0.65999997
-0.51333332
-0.36666662
-0.21999991
-0.073333263
0.073333383
0.22000009
0.36666679
0.51333344
0.66000009
0.80666673
0.9533335
1.1000001
1.2466668
1.3933336
1.5400001
-2.7133334
-2.5666666
-2.4200001
-2.2733333
-2.1266665
-1.98
-1.8333333
-1.6866666
-1.54
-1.3933333
-1.2466667
-1.0999999
-0.95333326
-0.80666661
-0.65999985
-0.51333332
-2.5666666
-2.4258056
-2.3095484
-2.1395218
-2.0577159
-1.8947587
-1.8318496
-1.5950702
-1.4048387
-1.2707781
-1.1395489
-0.88479632
-0.75776798
-0.71556598
-0.46836689
-0.36666667
-2.4200001
-2.2977312
-2.187614
-2.0539086
-1.9161501
-1.8063233
-1.5939804
-1.463889
-1.4295888
-1.1556333
-1.1117778
-0.93734229
-0.70067382
-0.45798349
-0.31061268
-0.21999997
-2.2733333
-2.1773598
-1.9209093
-1.9113313
-1.8327651
-1.7089847
-1.517943
-1.4749713
-1.2576988
-1.0784681
-0.92415828
-0.68423069
-0.48251665
-0.3810339
-0.1129814
-0.073333263
-2.1266665
-2.0500345
-1.8166604
-1.6355186
-1.7468898
-1.70207
-1.4180696
-1.36067
-1.2873375
-0.8520987
-0.89777833
-0.51537442
-0.42460835
-0.11672641
-0.070920974
0.073333383
-1.98
-1.8742322
-1.7809489
-1.704278
-1.5759188
-1.4215624
-1.4299303
-1.3936659
-1.0535256
-0.95417166
-0.56710351
-0.68647414
-0.32870218
0.057639893
0.16912389
0.22000003
-1.8333333
-1.7297722
-1.6796839
-1.6920803
-1.5165783
-1.4980013
-1.4670249
-1.2430038
-0.84072483
-0.82300633
-0.65378857
-0.28511691
-0.012810123
-0.05089011
0.27110517
0.36666673
-1.6866666
-1.600939
-1.5607703
-1.608898
-1.2584037
-1.3797582
-1.4134138
-1.434211
-0.84749174
-0.72148275
-0.30007997
-0.079644851
0.099500537
0.19406216
0.3957254
0.51333344
-1.54
-1.4627788
-1.4795601
-1.35772
-1.2999952
-1.2768394
-1.53308
-1.1696362
-1.0568359
-0.64187324
-0.18593933
0.15250488
0.4870322
0.3078706
0.542463
0.66000009
-1.3933333
-1.3203384
-1.3400654
-1.2338349
-1.0728029
-1.1531068
nan
nan
nan
nan
0.023972401
0.13380128
0.40321445
0.61015153
0.76863581
0.80666673
-1.2466667
-1.1652788
-1.1522447
-0.95392382
-0.93936002
-1.037619
nan
nan
nan
nan
0.39455256
0.47262698
0.67812568
0.75252944
0.8155818
0.95333338
-1.0999999
-1.0544786
-0.92646158
-0.89143312
-0.82300246
-0.74174118
nan
nan
nan
nan
0.55733329
0.66922867
0.8214789
0.7881996
1.0039139
1.1000001
-0.95333326
-0.87720048
-0.73153269
-0.61313909
-0.55346924
-0.60837001
-0.37131658
-0.2559073
0.084335156
0.34374472
0.64826202
0.79437572
0.83916897
1.0048697
1.1445696
1.2466668
-0.80666661
-0.65540779
-0.48404047
-0.43546072
-0.29543093
-0.19363168
-0.013846588
0.092787795
0.33823442
0.53213167
0.63799709
0.97480285
0.9882549
1.0746679
1.215371
1.3933334
-0.65999985
-0.52959299
-0.40100244
-0.31157589
-0.1588594
0.0091712549
0.28628761
0.41216335
0.53148568
0.7037062
0.90626776
1.0643611
1.0566113
1.1953449
1.4083191
1.5400002
-0.51333332
-0.36666667
-0.21999997
-0.073333263
0.073333383
0.22000003
0.36666673
0.51333344
0.66000009
0.80666673
0.95333338
1.1000001
1.2466668
1.3933334
1.5400002
1.6866667
-2.5666666
-2.4200001
-2.2733335
-2.1266665
-1.98
-1.8333334
-1.6866666
-1.54
-1.3933333
-1.2466667
-1.1
-0.95333326
-0.80666661
-0.65999997
-0.5133332
-0.36666667
-2.4200001
-2.3141677
-2.1537161
-2.0586257
-1.85961
-1.7923839
-1.6309497
-1.5454423
-1.3356605
-1.0497259
-1.1237346
-0.79247195
-0.77678275
-0.48729819
-0.36081326
-0.22000003
-2.2733335
-2.1817009
-1.9653543
-1.9608983
-1.7999239
-1.6712937
-1.6483402
-1.4764868
-1.3065417
-1.1104084
-0.9212659
-0.61449152
-0.6009537
-0.27896553
-0.19300181
-0.073333323
-2.1266665
-2.0412345
-1.9379958
-1.7814498
-1.7054831
-1.6535665
-1.6112244
-1.4552227
-1.1113231
-0.98923934
-0.88849354
-0.59747344
-0.31635538
-0.12615727
-0.075093791
0.073333383
-1.98
-1.9638772
-1.9196781
-1.7341515
-1.5232689
-1.5785079
-1.5464858
-1.1250834
-1.3013498
-0.78855151
-0.67769802
-0.49442661
-0.36691445
0.037903067
0.11816189
0.22000003
-1.8333334
-1.7711691
-1.6823335
-1.6119651
-1.6101182
-1.5116365
-1.5654089
-1.2542747
-0.9981423
-0.8723467
-0.50769037
-0.40752864
-0.083265051
0.12671421
0.2621645
0.36666667
-1.6866666
-1.6409889
-1.4733331
-1.5298115
-1.3903098
-1.4350578
-1.3915901
-1.0146303
-0.96305668
-0.6993627
-0.33378077
0.10195826
0.068734773
0.31882128
0.46014059
0.51333338
-1.54
-1.5169947
-1.4509748
-1.4593394
-1.409386
-1.2934268
-1.272959
-1.1868155
-0.94427973
-0.48559698
-0.10988814
0.22243406
0.43987253
0.53178626
0.61215389
0.66000009
-1.3933333
-1.3353652
-1.254639
-1.1285081
-1.2587614
-1.2030665
-1.2669754
-1.2372041
-0.88716906
-0.23271422
0.090825997
0.27268875
0.49705696
0.6327011
0.64350522
0.80666673
-1.2466667
-1.2222297
-1.0853992
-1.0651402
-1.0774601
-1.1387335
nan
nan
nan
nan
0.59812111
0.46119222
0.55935079
0.6790871
0.9001826
0.95333338
-1.1
-0.83770806
-0.95281339
-0.86737704
-0.77505344
-0.88194847
nan
nan
nan
nan
0.94253713
0.80253798
0.93099827
0.91277391
1.0703975
1.1
-0.95333326
-0.87419236
-0.78913397
-0.72419006
-0.57562959
-0.74017233
nan
nan
nan
nan
0.89923197
0.87239325
1.0209204
1.1566945
1.1801912
1.2466668
-0.80666661
-0.68961841
-0.60312945
-0.54306954
-0.53455395
-0.42642382
nan
nan
nan
nan
0.87318397
0.94466949
1.0545598
1.159162
1.2837354
1.3933334
-0.65999997
-0.5120365
-0.30936342
-0.17209144
-0.15538459
-0.083313674
0.0209652
nan
nan
0.87364841
0.88752419
1.168591
1.2056865
1.4060174
1.4363922
1.5400001
-0.5133332
-0.4401345
-0.2825976
0.049862981
0.12195676
0.10064
0.29679391
0.56301612
0.82256198
0.90285271
1.0366888
1.1453161
1.2501887
1.4586948
1.6091021
1.6866668
-0.36666667
-0.22000003
-0.073333323
0.073333383
0.22000003
0.36666667
0.51333338
0.66000009
0.80666673
0.95333338
1.1
1.2466668
1.3933334
1.5400001
1.6866668
1.8333334
-2.4200001
-2.2733333
-2.1266668
-1.98
-1.8333333
-1.6866667
-1.54
-1.3933332
-1.2466667
-1.0999999
-0.95333332
-0.80666655
-0.65999991
-0.51333326
-0.3666665
-0.21999997
-2.2733333
-2.1603143
-2.0314405
-1.8672891
-1.7793062
-1.621594
-1.5330012
-1.3054066
-1.254458
-0.98466951
-0.86997724
-0.66475743
-0.56904334
-0.44762647
-0.16106981
-0.073333323
-2.1266668
-2.0593045
-1.873693
-1.75603
-1.6761136
-1.7154851
-1.4791297
-1.3577676
-1.2483921
-1.0029219
-0.81710076
-0.6665417
-0.39809501
-0.23010604
-0.051455352
0.073333383
-1.98
-1.859194
-1.8102589
-1.6658429
-1.7787133
-1.638129
-1.5106808
-1.4534032
-1.1406111
-0.96679485
-0.56789774
-0.46734065
-0.39901787
-0.13660277
0.055787355
0.22000009
-1.8333333
-1.8136196
-1.6209732
-1.613735
-1.5949889
-1.6466271
-1.5768501
-1.315572
-1.1878175
-0.84648323
-0.53180474
-0.23262039
0.071195938
0.17765363
0.24696234
0.36666673
-1.6866667
-1.5709734
-1.4618565
-1.6928793
-1.5858264
-1.4084532
-1.5553842
-1.3933963
-1.1939783
-0.58571219
-0.12745011
-0.015143063
0.10843057
0.19808586
0.26551029
0.51333338
-1.54
-1.5128926
-1.494992
-1.4878832
-1.3391429
-1.4355485
-1.4241607
-1.4784329
-1.1363239
-0.51830828
-0.38802314
0.20084883
0.26090166
0.68734127
0.51066989
0.66000009
-1.3933332
-1.342489
-1.3581557
-1.2110783
-1.2264116
-1.2404903
-1.509187
-1.3865445
-0.73333299
-0.26640433
-0.10684114
0.51345867
0.54291952
0.48416457
0.72510934
0.80666679
-1.2466667
-1.210659
-1.1210747
-1.0276955
-1.2610812
-1.278772
-1.3592491
nan
nan
0.017206451
0.35368791
0.62461662
0.6069752
0.8515808
0.90465093
0.95333344
-1.0999999
-1.1462671
-0.90050572
-0.79464895
-0.83611029
-0.99371475
-1.1169627
nan
nan
0.41867566
0.65970325
0.59933138
0.8323195
0.89957815
0.93466502
1.1000001
-0.95333332
-0.90786564
-0.7447632
-0.82899028
-0.85412806
-0.77149844
nan
nan
nan
nan
1.0440874
0.97967094
0.95692438
1.1376266
1.1846747
1.2466667
-0.80666655
-0.76404566
-0.72671533
-0.43769762
-0.36245823
-0.65910363
nan
nan
nan
nan
1.1769731
1.2281082
1.1211416
1.2054569
1.3167334
1.3933334
-0.65999991
-0.54049999
-0.48959389
-0.33515427
-0.37143713
nan
nan
nan
nan
nan
nan
1.1727635
1.2717837
1.3856519
1.4982964
1.5400002
-0.51333326
-0.44684482
-0.31134585
-0.14020248
0.13461506
0.42495209
0.51713663
nan
nan
1.4707707
1.3019177
1.278493
1.4208279
1.5109186
1.5389957
1.6866667
-0.3666665
-0.19421855
-0.079891898
0.088042937
0.16945274
0.42868799
0.67623663
0.94982725
0.91590369
1.2380967
1.2791748
1.4031968
1.4840447
1.5798384
1.7131208
1.8333335
-0.21999997
-0.073333323
0.073333383
0.22000009
0.36666673
0.51333338
0.66000009
0.80666679
0.95333344
1.1000001
1.2466667
1.3933334
1.5400002
1.6866667
1.8333335
1.98
-2.2733333
-2.1266665
-1.98
-1.8333333
-1.6866666
-1.54
-1.3933332
-1.2466666
-1.0999999
-0.95333326
-0.80666661
-0.65999985
-0.5133332
-0.36666656
-0.21999979
-0.073333263
-2.1266665
-2.0402892
-1.8563981
-1.8102058
-1.6091555
-1.4188187
-1.4294567
-1.2499977
-1.099499
-0.77452934
-0.79455948
-0.48360661
-0.44615746
-0.25294635
-0.059401687
0.073333383
-1.98
-1.8877383
-1.8248664
-1.7239267
-1.6143808
-1.4882894
-1.3852801
-1.2052678
-1.1817464
-1.0247302
-0.54988098
-0.3446328
-0.17400204
-0.12477463
0.01072319
0.22000009
-1.8333333
-1.7378531
-1.7205759
-1.7304987
-1.5956362
-1.6470795
nan
-1.1733217
-0.97350454
nan
-0.60883069
-0.1646304
-0.20725277
-0.049399942
0.17444037
0.36666679
-1.6866666
-1.6699667
-1.5432073
-1.5387663
-1.503124
-1.6525803
nan
-1.1702683
-1.409544
nan
-0.20064694
0.14798835
0.12129723
0.19238259
0.41226655
0.51333344
-1.54
-1.507399
-1.465783
-1.3546413
-1.645411
-1.7156451
nan
-1.5599996
-1.4249926
nan
0.035760332
0.29268005
0.34371626
0.46796632
0.61847281
0.66000009
-1.3933332
-1.2995077
-1.3258995
-1.3398359
-1.2319535
-1.4803348
nan
nan
nan
nan
0.16678175
0.45021412
0.72319078
0.72652239
0.66007429
0.80666679
-1.2466666
-1.2331853
-1.1785574
-1.0863816
-1.2491273
-1.1647507
nan
nan
nan
nan
0.56370413
0.46787789
0.68434584
0.88090354
0.98850262
0.9533335
-1.0999999
-1.047932
-0.91664612
-1.0382512
-1.0438329
-0.98091048
nan
nan
nan
nan
0.72850251
0.78873736
0.87535268
0.97405279
0.93138885
1.1000001
-0.95333326
-1.00609
-0.74833459
-0.59856296
-0.74392122
-0.87064111
-0.85267842
nan
nan
1.0188873
1.1609052
0.870462
1.2155987
1.2312905
1.0682302
1.2466668
-0.80666661
-0.78093231
-0.72523338
-0.43991193
-0.45390069
-0.38888353
nan
nan
nan
nan
1.4235557
1.1466672
1.2714695
1.3724883
1.2883495
1.3933334
-0.65999985
-0.52335572
-0.37872007
-0.34318495
-0.35608423
-0.10700121
nan
nan
nan
nan
1.4072887
1.3763175
1.3157548
1.3773154
1.3465812
1.5400002
-0.5133332
-0.49344632
-0.083309643
-0.14116697
-0.064892009
0.32841653
0.64164585
nan
nan
1.634546
1.5041194
1.477448
1.4866648
1.4492946
1.5423928
1.6866668
-0.36666656
-0.23925696
-0.13653494
0.11439464
0.11665568
0.59020597
0.70082372
1.098318
1.417506
1.4671918
1.4804437
1.5718367
1.5871284
1.5535725
1.6599743
1.8333335
-0.21999979
-0.084240034
0.088967532
0.27831849
0.40712291
0.52256405
0.69239509
1.055164
1.2096972
1.3181609
1.446998
1.5297928
1.6593816
1.711624
1.8939505
1.9800003
-0.073333263
0.073333383
0.22000009
0.36666679
0.51333344
0.66000009
0.80666679
0.9533335
1.1000001
1.2466668
1.3933334
1.5400002
1.6866668
1.8333335
1.9800003
2.1266668
-2.1266665
-1.9799999
-1.8333334
-1.6866666
-1.54
-1.3933333
-1.2466666
-1.0999999
-0.95333326
-0.80666661
-0.65999997
-0.5133332
-0.36666656
-0.21999991
-0.073333144
0.073333383
-1.9799999
-1.833807
-1.6815132
-1.5808637
-1.4828393
-1.4204969
-1.2164681
-1.0316402
-0.92166388
-0.82327223
-0.51319718
-0.1828744
-0.29267827
0.020304814
0.037139706
0.22000003
-1.8333334
-1.6846794
-1.6019626
-1.4806433
-1.3864635
-1.4369811
-1.2495213
-1.063363
-1.051168
-0.73889852
-0.51266843
-0.20344199
-0.1752196
0.092161432
0.27630702
0.36666673
-1.6866666
-1.6169021
-1.6442175
-1.3677511
-1.5654757
-1.4812461
nan
-0.94610053
-1.1131248
nan
-0.068265565
0.05980726
0.0011659851
0.051230006
0.36301175
0.51333344
-1.54
-1.5231481
-1.3332344
-1.3091177
-1.418111
nan
nan
-1.013845
-1.3053858
nan
nan
0.24495241
0.24185418
0.44031245
0.51220399
0.66000009
-1.3933333
-1.3485007
-1.2014681
-1.3280816
-1.2823201
nan
nan
nan
nan
nan
nan
0.54597539
0.50159621
0.66374749
0.73016709
0.80666673
-1.2466666
-1.1862116
-1.2459326
-1.174739
-1.3054385
nan
nan
nan
nan
nan
nan
0.76281029
0.5519532
0.9824332
0.92934889
0.95333344
-1.0999999
-1.0244998
-0.92374098
-1.040428
-0.95712888
-1.2771859
nan
nan
nan
nan
0.74485552
0.71598291
0.89936745
0.91106611
0.97875965
1.1000001
-0.95333326
-0.75525773
-0.94618565
-0.9784857
-0.82056111
-0.80524576
nan
nan
nan
nan
0.99764901
1.0825124
1.0469146
1.196111
1.1669537
1.2466668
-0.80666661
-0.63099861
-0.65484977
-0.61921561
-0.6832335
-0.44750634
nan
nan
nan
nan
1.333288
1.1101201
1.2824494
1.2657483
1.1953578
1.3933334
-0.65999997
-0.62764496
-0.46837446
-0.34724566
-0.28325656
-0.018149605
0.23497121
1.2608225
1.5345762
1.6942996
1.5773501
1.2999132
1.5220613
1.3153272
1.4466467
1.5400001
-0.5133332
-0.42223826
-0.21156231
-0.19180933
0.023425192
0.27546382
0.65140527
1.1120653
1.5260268
1.5030702
1.3985559
1.4579372
1.5943742
1.3895471
1.5960535
1.6866668
-0.36666656
-0.30761439
-0.18897785
0.15452938
0.18827529
0.51129937
0.99589038
1.1700594
1.5911943
1.5646098
1.5608138
1.5701969
1.6927483
1.6819526
1.6806051
1.8333335
-0.21999991
-0.11455307
0.018811792
0.16279538
0.34296507
0.70735991
0.92073488
0.89468944
1.3171157
1.536602
1.5014224
1.5727549
1.7130326
1.7877434
1.8976562
1.9800001
-0.073333144
0.05403018
0.11337645
0.3593525
0.46947247
0.68006557
0.95505434
1.049765
1.2959727
1.4185563
1.6679085
1.7460319
1.6764897
1.8949525
2.0567012
2.126667
0.073333383
0.22000003
0.36666673
0.51333344
0.66000009
0.80666673
0.95333344
1.1000001
1.2466668
1.3933334
1.5400001
1.6866668
1.8333335
1.9800001
2.126667
2.2733335
-1.98
-1.8333333
-1.6866667
-1.54
-1.3933333
-1.2466667
-1.0999999
-0.95333326
-0.80666661
-0.65999997
-0.51333332
-0.36666656
-0.21999991
-0.073333263
0.073333502
0.22000003
-1.8333333
-1.7286878
-1.5862396
-1.5081092
-1.3531536
-1.2786421
-1.0698364
-0.91117972
-0.81765723
-0.49127135
-0.39111018
-0.15780267
-0.072833888
0.090535618
0.19052397
0.36666667
-1.6866667
-1.563607
-1.4375544
-1.4173324
-1.3900025
-1.2526098
-1.115205
-0.98239386
-0.69386166
-0.50041819
-0.16260286
0.0048544202
0.039304622
0.28359929
0.36758509
0.51333338
-1.54
-1.5300976
-1.5155721
-1.3079368
-1.2667705
-1.1459799
-0.92493016
-1.0507337
-0.66557413
-0.36598763
0.042423524
0.12983888
0.1748727
0.59023207
0.62768066
0.66000009
-1.3933333
-1.3180212
-1.3004625
-1.200758
-1.2828016
-0.98932832
-0.98587918
-0.99644202
-0.82934046
-0.26590061
0.26774582
0.40737981
0.52098894
0.52338564
0.63999486
0.80666673
-1.2466667
-1.1086583
-1.2190939
-1.2721388
-1.1621189
-1.3612337
nan
nan
nan
nan
0.59615558
0.59606367
0.70092982
0.81983447
0.88011742
0.95333338
-1.0999999
-1.1211141
-1.0786893
-1.0729523
-1.0974034
nan
nan
nan
nan
nan
nan
0.85128033
0.65876055
1.1088787
1.0567391
1.1000001
-0.95333326
-0.79652035
-0.85941833
-0.81404048
-0.96854252
nan
nan
nan
nan
nan
nan
1.2108402
1.0815492
1.1644497
1.2114264
1.2466668
-0.80666661
-0.77396268
-0.52412993
-0.54179406
-0.69769394
-0.46349928
nan
nan
nan
nan
1.6647024
1.366688
1.3686886
1.2629354
1.3609483
1.3933334
-0.65999997
-0.52988905
-0.55370659
-0.26836237
-0.30696076
-0.22956663
nan
nan
nan
nan
1.5988899
1.4734453
1.4329115
1.3868045
1.4703898
1.5400001
-0.51333332
-0.44664446
-0.36685511
-0.12502557
0.12749693
0.038405418
0.5898807
1.1416581
1.6279362
1.6645876
1.6664013
1.4366001
1.5125901
1.6050993
1.6437578
1.6866667
-0.36666656
-0.30988795
-0.10782489
-0.020692296
0.22421707
0.38977998
0.67977118
1.1198277
1.3564621
1.5311999
1.717136
1.5959649
1.6040853
1.6602596
1.8115919
1.8333335
-0.21999991
-0.14279434
0.043233305
0.032740209
0.19622295
0.60543555
0.87779886
1.0765133
1.4682244
1.5951006
1.5782396
1.739224
1.7787657
1.9138153
1.7857866
1.9800001
-0.073333263
0.074056841
0.29763398
0.20180091
0.59436262
0.529549
1.1125165
1.1236767
1.2269545
1.5963999
1.5770135
1.8005812
1.777483
1.944541
2.0221891
2.1266668
0.073333502
0.22544593
0.38524091
0.4975284
0.72030246
0.86631298
1.1136224
1.2485677
1.3736665
1.5791473
1.6626058
1.8300693
1.8616227
2.0738232
2.1387918
2.2733335
0.22000003
0.36666667
0.51333338
0.66000009
0.80666673
0.95333338
1.1000001
1.2466668
1.3933334
1.5400001
1.6866667
1.8333335
1.9800001
2.1266668
2.2733335
2.4200001
-1.8333334
-1.6866666
-1.5400001
-1.3933333
-1.2466667
-1.1
-0.95333326
-0.80666661
-0.65999997
-0.51333332
-0.36666667
-0.21999991
-0.073333263
0.073333383
0.22000015
0.36666667
-1.6866666
-1.5318816
-1.463201
-1.2830414
-1.2512256
-1.1410102
-0.96717685
-0.78120095
-0.67990035
-0.47210377
-0.30453151
0.10527539
0.088173375
0.25180948
0.33455658
0.51333332
-1.5400001
-1.4303726
-1.3770636
-1.2734152
-1.1775527
-1.0724536
-0.98607486
-0.71786243
-0.5770418
-0.3139464
-0.10224156
0.058346
0.17518574
0.33691671
0.40099734
0.66000003
-1.3933333
-1.3383549
-1.2533782
-1.0722789
-1.2243601
-1.2806717
-0.9802022
-0.88391101
-0.66570234
-0.27816755
-0.030410644
0.053507406
0.43211877
0.46792349
0.59050119
0.80666673
-1.2466667
-1.227155
-1.1271617
-1.099951
-1.1215745
-1.2062736
-1.3128512
nan
nan
-0.071946815
0.23241475
0.25671294
0.59265733
0.9084537
0.84320456
0.95333338
-1.1
-1.0089346
-1.1173165
-0.97725284
-0.87821919
-1.1825219
nan
nan
nan
nan
0.52457529
0.71974683
0.96265936
0.85110301
0.8937121
1.1
-0.95333326
-0.8393032
-0.85996443
-0.78913361
-0.86364609
nan
nan
nan
nan
nan
nan
1.0569043
1.0218294
1.1679069
1.1513902
1.2466667
-0.80666661
-0.72533453
-0.66214246
-0.50403643
-0.47975743
nan
nan
nan
nan
nan
nan
1.3456358
1.1746541
1.3401325
1.4034827
1.3933334
-0.65999997
-0.39582989
-0.56802684
-0.44568455
-0.28921407
-0.020365458
nan
nan
nan
nan
1.6147994
1.5243335
1.5674151
1.5594643
1.5819511
1.5400001
-0.51333332
-0.44416371
-0.22378489
-0.15601921
-0.16397516
0.027733242
0.59618181
nan
nan
1.9001259
1.7164781
1.551852
1.5297668
1.6792943
1.6140382
1.6866667
-0.36666667
-0.24663819
-0.0058075399
0.0094778426
0.070567243
0.4471527
0.771698
1.1169045
1.5333431
1.6014836
1.7261593
1.7537016
1.6214972
1.7133569
1.7649087
1.8333334
-0.21999991
-0.011971296
-0.10057826
0.20079817
0.42693195
0.71299404
0.93748474
1.1445699
1.5764031
1.5673631
1.7835287
1.5838996
1.8587838
1.7414422
1.8721719
1.9800001
-0.073333263
0.085693836
0.24085386
0.28318
0.40154833
0.69127941
1.0461121
1.4157027
1.4713956
1.6145598
1.7812015
1.7198982
1.7329592
1.8920668
2.0279129
2.1266668
0.073333383
0.119141
0.40925905
0.52068216
0.79951668
0.93541497
1.1098204
1.2234689
1.4736145
1.7827954
1.7009789
1.8013237
2.0198092
2.1411285
2.1774828
2.2733335
0.22000015
0.38846025
0.45423213
0.65520006
0.75682551
0.89621025
1.096355
1.3033576
1.3907681
1.6414472
1.7660519
1.872348
2.0577607
2.2202301
2.3195426
2.4200001
0.36666667
0.51333332
0.66000003
0.80666673
0.95333338
1.1
1.2466667
1.3933334
1.5400001
1.6866667
1.8333334
1.9800001